
    -----------------------------------------------------------------------
          Psi4: An Open-Source Ab Initio Electronic Structure Package
                               Psi4 1.3.2 release

                         Git: Rev {HEAD} ecbda83 


    R. M. Parrish, L. A. Burns, D. G. A. Smith, A. C. Simmonett,
    A. E. DePrince III, E. G. Hohenstein, U. Bozkaya, A. Yu. Sokolov,
    R. Di Remigio, R. M. Richard, J. F. Gonthier, A. M. James,
    H. R. McAlexander, A. Kumar, M. Saitow, X. Wang, B. P. Pritchard,
    P. Verma, H. F. Schaefer III, K. Patkowski, R. A. King, E. F. Valeev,
    F. A. Evangelista, J. M. Turney, T. D. Crawford, and C. D. Sherrill,
    J. Chem. Theory Comput. 13(7) pp 3185--3197 (2017).
    (doi: 10.1021/acs.jctc.7b00174)


                         Additional Contributions by
    P. Kraus, H. Kruse, M. H. Lechner, M. C. Schieber, R. A. Shaw,
    A. Alenaizan, R. Galvelis, Z. L. Glick, S. Lehtola, and J. P. Misiewicz

    -----------------------------------------------------------------------


    Psi4 started on: Thursday, 03 October 2019 06:54PM

    Process ID: 16823
    Host:       wireless-10-104-54-138.umd.edu
    PSIDATADIR: //anaconda3/envs/p4env/share/psi4
    Memory:     500.0 MiB
    Threads:    1
    
  ==> Input File <==

--------------------------------------------------------------------------

memory 600 mb

molecule HeH {
    0 1
    He
    --
    -1 1
    H 1 0.5
}

set {
    basis sto-3g
    basis_guess sto-3g
    guess sad
}

properties('scf')
--------------------------------------------------------------------------

  Memory set to 572.205 MiB by Python driver.

*** tstart() called on wireless-10-104-54-138.umd.edu
*** at Thu Oct  3 18:54:40 2019


  //>>>>>>>>>>>>>>>>>>>>>>>>>>>>>>>>>>>//
  //      Guess SCF, STO-3G Basis      //
  //<<<<<<<<<<<<<<<<<<<<<<<<<<<<<<<<<<<//

   => Loading Basis Set <=

    Name: STO-3G
    Role: ORBITAL
    Keyword: BASIS
    atoms 1 entry HE         line    25 file //anaconda3/envs/p4env/share/psi4/basis/sto-3g.gbs 
    atoms 2 entry H          line    19 file //anaconda3/envs/p4env/share/psi4/basis/sto-3g.gbs 


         ---------------------------------------------------------
                           SCF Castup computation                  
         ---------------------------------------------------------
                                   SCF
               by Justin Turney, Rob Parrish, Andy Simmonett
                          and Daniel G. A. Smith
                              RHF Reference
                        1 Threads,    572 MiB Core
         ---------------------------------------------------------

  ==> Geometry <==

    Molecular point group: c2v
    Full point group: C_inf_v

    Geometry (in Angstrom), charge = -1, multiplicity = 1:

       Center              X                  Y                   Z               Mass       
    ------------   -----------------  -----------------  -----------------  -----------------
         HE           0.000000000000     0.000000000000    -0.100572742950     4.002603254130
         H            0.000000000000     0.000000000000     0.399427257050     1.007825032230

  Running in c2v symmetry.

  Rotational constants: A = ************  B =     83.75363  C =     83.75363 [cm^-1]
  Rotational constants: A = ************  B = 2510870.74118  C = 2510870.74118 [MHz]
  Nuclear repulsion =    2.116708842680000

  Charge       = -1
  Multiplicity = 1
  Electrons    = 4
  Nalpha       = 2
  Nbeta        = 2

  ==> Algorithm <==

  SCF Algorithm Type is DF.
  DIIS enabled.
  MOM disabled.
  Fractional occupation disabled.
  Guess Type is SAD.
  Energy threshold   = 1.00e-06
  Density threshold  = 1.00e-06
  Integral threshold = 0.00e+00

  ==> Primary Basis <==

  Basis Set: STO-3G
    Blend: STO-3G
    Number of shells: 2
    Number of basis function: 2
    Number of Cartesian functions: 2
    Spherical Harmonics?: true
    Max angular momentum: 0

   => Loading Basis Set <=

    Name: (STO-3G AUX)
    Role: JKFIT
    Keyword: DF_BASIS_SCF
    atoms 1 entry HE         line    39 file //anaconda3/envs/p4env/share/psi4/basis/def2-svp-jkfit.gbs 
    atoms 2 entry H          line    23 file //anaconda3/envs/p4env/share/psi4/basis/def2-svp-jkfit.gbs 

  ==> Pre-Iterations <==

   -------------------------------------------------------
    Irrep   Nso     Nmo     Nalpha   Nbeta   Ndocc  Nsocc
   -------------------------------------------------------
     A1         2       2       0       0       0       0
     A2         0       0       0       0       0       0
     B1         0       0       0       0       0       0
     B2         0       0       0       0       0       0
   -------------------------------------------------------
    Total       2       2       2       2       2       0
   -------------------------------------------------------

  ==> Integral Setup <==

  ==> DiskDFJK: Density-Fitted J/K Matrices <==

    J tasked:                  Yes
    K tasked:                  Yes
    wK tasked:                  No
    OpenMP threads:              1
    Integrals threads:           1
    Memory [MiB]:              429
    Algorithm:                Core
    Integral Cache:           NONE
    Schwarz Cutoff:          1E-12
    Fitting Condition:       1E-10

   => Auxiliary Basis Set <=

  Basis Set: (STO-3G AUX)
    Blend: DEF2-SVP-JKFIT
    Number of shells: 15
    Number of basis function: 41
    Number of Cartesian functions: 45
    Spherical Harmonics?: true
    Max angular momentum: 2

  Minimum eigenvalue in the overlap matrix is 2.6462156591E-01.
  Using Symmetric Orthogonalization.

  SCF Guess: Superposition of Atomic Densities via on-the-fly atomic UHF.

  ==> Iterations <==

                           Total Energy        Delta E     RMS |[F,P]|

   @DF-RHF iter SAD:    -3.53223780317353   -3.53224e+00   0.00000e+00 
   @DF-RHF iter   1:    -1.63488830073778    1.89735e+00   1.15847e-16 DIIS
   @DF-RHF iter   2:    -1.63488830073778    0.00000e+00   1.15847e-16 DIIS
  Energy and wave function converged.


  ==> Post-Iterations <==

    Orbital Energies [Eh]
    ---------------------

    Doubly Occupied:                                                      

       1A1    -0.539628     2A1     0.881454  

    Virtual:                                                              

    

    Final Occupation by Irrep:
             A1    A2    B1    B2 
    DOCC [     2,    0,    0,    0 ]

  @DF-RHF Final Energy:    -1.63488830073778

   => Energetics <=

    Nuclear Repulsion Energy =              2.1167088426800000
    One-Electron Energy =                  -8.1868469098481533
    Two-Electron Energy =                   4.4352497664303758
    Total Energy =                         -1.6348883007377779

Computation Completed

  //>>>>>>>>>>>>>>>>>>>>>>>>>>>>>>>>>>>//
  //                SCF                //
  //<<<<<<<<<<<<<<<<<<<<<<<<<<<<<<<<<<<//

   => Loading Basis Set <=

    Name: STO-3G
    Role: ORBITAL
    Keyword: BASIS
    atoms 1 entry HE         line    25 file //anaconda3/envs/p4env/share/psi4/basis/sto-3g.gbs 
    atoms 2 entry H          line    19 file //anaconda3/envs/p4env/share/psi4/basis/sto-3g.gbs 


         ---------------------------------------------------------
                                   SCF
               by Justin Turney, Rob Parrish, Andy Simmonett
                          and Daniel G. A. Smith
                              RHF Reference
                        1 Threads,    572 MiB Core
         ---------------------------------------------------------

  ==> Geometry <==

    Molecular point group: c2v
    Full point group: C_inf_v

    Geometry (in Angstrom), charge = -1, multiplicity = 1:

       Center              X                  Y                   Z               Mass       
    ------------   -----------------  -----------------  -----------------  -----------------
         HE           0.000000000000     0.000000000000    -0.100572742950     4.002603254130
         H            0.000000000000     0.000000000000     0.399427257050     1.007825032230

  Running in c2v symmetry.

  Rotational constants: A = ************  B =     83.75363  C =     83.75363 [cm^-1]
  Rotational constants: A = ************  B = 2510870.74118  C = 2510870.74118 [MHz]
  Nuclear repulsion =    2.116708842680000

  Charge       = -1
  Multiplicity = 1
  Electrons    = 4
  Nalpha       = 2
  Nbeta        = 2

  ==> Algorithm <==

  SCF Algorithm Type is DF.
  DIIS enabled.
  MOM disabled.
  Fractional occupation disabled.
  Guess Type is SAD.
  Energy threshold   = 1.00e-06
  Density threshold  = 1.00e-06
  Integral threshold = 0.00e+00

  ==> Primary Basis <==

  Basis Set: STO-3G
    Blend: STO-3G
    Number of shells: 2
    Number of basis function: 2
    Number of Cartesian functions: 2
    Spherical Harmonics?: true
    Max angular momentum: 0

   => Loading Basis Set <=

    Name: (STO-3G AUX)
    Role: JKFIT
    Keyword: DF_BASIS_SCF
    atoms 1 entry HE         line    39 file //anaconda3/envs/p4env/share/psi4/basis/def2-svp-jkfit.gbs 
    atoms 2 entry H          line    23 file //anaconda3/envs/p4env/share/psi4/basis/def2-svp-jkfit.gbs 


  Computing basis projection from STO-3G to STO-3G

  ==> Pre-Iterations <==

   -------------------------------------------------------
    Irrep   Nso     Nmo     Nalpha   Nbeta   Ndocc  Nsocc
   -------------------------------------------------------
     A1         2       2       0       0       0       0
     A2         0       0       0       0       0       0
     B1         0       0       0       0       0       0
     B2         0       0       0       0       0       0
   -------------------------------------------------------
    Total       2       2       2       2       2       0
   -------------------------------------------------------

  ==> Integral Setup <==

  DFHelper Memory: AOs need 0.000 GiB; user supplied 0.419 GiB. Using in-core AOs.

  ==> MemDFJK: Density-Fitted J/K Matrices <==

    J tasked:                   Yes
    K tasked:                   Yes
    wK tasked:                   No
    OpenMP threads:               1
    Memory [MiB]:               429
    Algorithm:                 Core
    Schwarz Cutoff:           1E-12
    Mask sparsity (%):       0.0000
    Fitting Condition:        1E-10

   => Auxiliary Basis Set <=

  Basis Set: (STO-3G AUX)
    Blend: DEF2-SVP-JKFIT
    Number of shells: 15
    Number of basis function: 41
    Number of Cartesian functions: 45
    Spherical Harmonics?: true
    Max angular momentum: 2

  Minimum eigenvalue in the overlap matrix is 2.6462156591E-01.
  Using Symmetric Orthogonalization.

  SCF Guess: Orbitals guess was supplied from a previous computation.

  ==> Iterations <==

                           Total Energy        Delta E     RMS |[F,P]|

   @DF-RHF iter   0:    -1.63488830073780   -1.63489e+00   3.47542e-16 
   @DF-RHF iter   1:    -1.63488830073780   -8.88178e-16   2.31694e-16 DIIS
  Energy and wave function converged.


  ==> Post-Iterations <==

    Orbital Energies [Eh]
    ---------------------

    Doubly Occupied:                                                      

       1A1    -0.539628     2A1     0.881454  

    Virtual:                                                              

    

    Final Occupation by Irrep:
             A1    A2    B1    B2 
    DOCC [     2,    0,    0,    0 ]

  @DF-RHF Final Energy:    -1.63488830073780

   => Energetics <=

    Nuclear Repulsion Energy =              2.1167088426800000
    One-Electron Energy =                  -8.1868469098481516
    Two-Electron Energy =                   4.4352497664303536
    Total Energy =                         -1.6348883007377983

Computation Completed


Properties will be evaluated at   0.000000,   0.000000,   0.000000 [a0]

Properties computed using the SCF density matrix

  Nuclear Dipole Moment: [e a0]
     X:     0.0000      Y:     0.0000      Z:     0.3747

  Electronic Dipole Moment: [e a0]
     X:     0.0000      Y:     0.0000      Z:    -1.5097

  Dipole Moment: [e a0]
     X:     0.0000      Y:     0.0000      Z:    -1.1350     Total:     1.1350

  Dipole Moment: [D]
     X:     0.0000      Y:     0.0000      Z:    -2.8849     Total:     2.8849

  Quadrupole Moment: [D A]
    XX:    -2.6370     YY:    -2.6370     ZZ:    -4.7952
    XY:     0.0000     XZ:     0.0000     YZ:     0.0000

  Traceless Quadrupole Moment: [D A]
    XX:     0.7194     YY:     0.7194     ZZ:    -1.4388
    XY:     0.0000     XZ:     0.0000     YZ:     0.0000


*** tstop() called on wireless-10-104-54-138.umd.edu at Thu Oct  3 18:54:40 2019
Module time:
	user time   =       0.33 seconds =       0.01 minutes
	system time =       0.02 seconds =       0.00 minutes
	total time  =          0 seconds =       0.00 minutes
Total time:
	user time   =       0.33 seconds =       0.01 minutes
	system time =       0.02 seconds =       0.00 minutes
	total time  =          0 seconds =       0.00 minutes

    Psi4 stopped on: Thursday, 03 October 2019 06:54PM
    Psi4 wall time for execution: 0:00:00.35

*** Psi4 exiting successfully. Buy a developer a beer!
