
Host: wireless-10-104-54-138.umd.edu

Timers On : Thu Oct  3 17:52:24 2019
Timers Off: Thu Oct  3 17:52:25 2019

Wall Time:        1.10 seconds

                                                       Time (seconds)
Module                                       User      System        Wall        Calls
DFH: sparsity prep                  :      0.017u      0.000s      0.021w      1 calls
DFH: initialize()                   :      0.050u      0.000s      0.040w      1 calls
DFH: AO Construction                :      0.017u      0.000s      0.005w      1 calls
DFH: AO-Met. Contraction            :      0.000u      0.000s      0.001w      1 calls
HF: Form core H                     :      0.000u      0.000s      0.002w      1 calls
HF: Form S/X                        :      0.000u      0.000s      0.000w      1 calls
HF: Guess                           :      0.100u      0.017s      0.066w      1 calls
SAD Guess                           :      0.100u      0.017s      0.063w      1 calls
HF: Form G                          :      0.000u      0.000s      0.002w      9 calls
JK: D                               :      0.000u      0.000s      0.000w      9 calls
JK: USO2AO                          :      0.000u      0.000s      0.000w      9 calls
JK: JK                              :      0.000u      0.000s      0.001w      9 calls
DFH: compute_JK()                   :      0.000u      0.000s      0.001w      9 calls
DFH: Grabbing AOs                   :      0.000u      0.000s      0.000w      9 calls
DFH: compute_J                      :      0.000u      0.000s      0.000w      9 calls
DFH: compute_K                      :      0.000u      0.000s      0.001w      9 calls
JK: AO2USO                          :      0.000u      0.000s      0.000w      9 calls
HF: Form F                          :      0.000u      0.000s      0.000w      9 calls
HF: Form D                          :      0.000u      0.000s      0.000w      9 calls
HF: DIIS                            :      0.000u      0.000s      0.006w      8 calls
DIISManager::add_entry              :      0.000u      0.000s      0.001w      8 calls
DIISManager::extrapolate            :      0.000u      0.000s      0.001w      8 calls
bMatrix setup                       :      0.000u      0.000s      0.000w      8 calls
bMatrix pseudoinverse               :      0.000u      0.000s      0.000w      8 calls
New vector                          :      0.000u      0.000s      0.000w      8 calls
HF: Form C                          :      0.000u      0.000s      0.001w      8 calls

--------------------------------------------------------------------------------------
DFH: sparsity prep                  :      0.017u      0.000s      0.021w      1 calls
DFH: initialize()                   :      0.050u      0.000s      0.040w      1 calls
| DFH: AO Construction              :      0.017u      0.000s      0.005w      1 calls
| DFH: AO-Met. Contraction          :      0.000u      0.000s      0.001w      1 calls
HF: Form core H                     :      0.000u      0.000s      0.002w      1 calls
HF: Form S/X                        :      0.000u      0.000s      0.000w      1 calls
HF: Guess                           :      0.100u      0.017s      0.066w      1 calls
| SAD Guess                         :      0.100u      0.017s      0.063w      1 calls
HF: Form G                          :      0.000u      0.000s      0.002w      9 calls
| JK: D                             :      0.000u      0.000s      0.000w      9 calls
| JK: USO2AO                        :      0.000u      0.000s      0.000w      9 calls
| JK: JK                            :      0.000u      0.000s      0.001w      9 calls
| | DFH: compute_JK()               :      0.000u      0.000s      0.001w      9 calls
| | | DFH: Grabbing AOs             :      0.000u      0.000s      0.000w      9 calls
| | | DFH: compute_J                :      0.000u      0.000s      0.000w      9 calls
| | | DFH: compute_K                :      0.000u      0.000s      0.001w      9 calls
| JK: AO2USO                        :      0.000u      0.000s      0.000w      9 calls
HF: Form F                          :      0.000u      0.000s      0.000w      9 calls
HF: Form D                          :      0.000u      0.000s      0.000w      9 calls
HF: DIIS                            :      0.000u      0.000s      0.006w      8 calls
| DIISManager::add_entry            :      0.000u      0.000s      0.001w      8 calls
| DIISManager::extrapolate          :      0.000u      0.000s      0.001w      8 calls
| | bMatrix setup                   :      0.000u      0.000s      0.000w      8 calls
| | bMatrix pseudoinverse           :      0.000u      0.000s      0.000w      8 calls
| | New vector                      :      0.000u      0.000s      0.000w      8 calls
HF: Form C                          :      0.000u      0.000s      0.001w      8 calls

**************************************************************************************

Host: wireless-10-104-54-138.umd.edu

Timers On : Thu Oct  3 18:22:12 2019
Timers Off: Thu Oct  3 18:22:13 2019

Wall Time:        0.78 seconds

                                                       Time (seconds)
Module                                       User      System        Wall        Calls

--------------------------------------------------------------------------------------

**************************************************************************************

Host: wireless-10-104-54-138.umd.edu

Timers On : Thu Oct  3 18:23:34 2019
Timers Off: Thu Oct  3 18:23:35 2019

Wall Time:        0.27 seconds

                                                       Time (seconds)
Module                                       User      System        Wall        Calls

--------------------------------------------------------------------------------------

**************************************************************************************

Host: wireless-10-104-54-138.umd.edu

Timers On : Thu Oct  3 18:24:34 2019
Timers Off: Thu Oct  3 18:24:34 2019

Wall Time:        0.35 seconds

                                                       Time (seconds)
Module                                       User      System        Wall        Calls

--------------------------------------------------------------------------------------

**************************************************************************************

Host: wireless-10-104-54-138.umd.edu

Timers On : Thu Oct  3 18:34:08 2019
Timers Off: Thu Oct  3 18:34:08 2019

Wall Time:        0.27 seconds

                                                       Time (seconds)
Module                                       User      System        Wall        Calls

--------------------------------------------------------------------------------------

**************************************************************************************

Host: wireless-10-104-54-138.umd.edu

Timers On : Thu Oct  3 18:34:22 2019
Timers Off: Thu Oct  3 18:34:22 2019

Wall Time:        0.27 seconds

                                                       Time (seconds)
Module                                       User      System        Wall        Calls

--------------------------------------------------------------------------------------

**************************************************************************************

Host: wireless-10-104-54-138.umd.edu

Timers On : Thu Oct  3 18:35:20 2019
Timers Off: Thu Oct  3 18:35:21 2019

Wall Time:        0.27 seconds

                                                       Time (seconds)
Module                                       User      System        Wall        Calls

--------------------------------------------------------------------------------------

**************************************************************************************

Host: wireless-10-104-54-138.umd.edu

Timers On : Thu Oct  3 18:35:26 2019
Timers Off: Thu Oct  3 18:35:26 2019

Wall Time:        0.26 seconds

                                                       Time (seconds)
Module                                       User      System        Wall        Calls

--------------------------------------------------------------------------------------

**************************************************************************************

Host: wireless-10-104-54-138.umd.edu

Timers On : Thu Oct  3 18:37:16 2019
Timers Off: Thu Oct  3 18:37:16 2019

Wall Time:        0.27 seconds

                                                       Time (seconds)
Module                                       User      System        Wall        Calls

--------------------------------------------------------------------------------------

**************************************************************************************

Host: wireless-10-104-54-138.umd.edu

Timers On : Thu Oct  3 18:37:31 2019
Timers Off: Thu Oct  3 18:37:31 2019

Wall Time:        0.27 seconds

                                                       Time (seconds)
Module                                       User      System        Wall        Calls

--------------------------------------------------------------------------------------

**************************************************************************************

Host: wireless-10-104-54-138.umd.edu

Timers On : Thu Oct  3 18:37:38 2019
Timers Off: Thu Oct  3 18:37:39 2019

Wall Time:        0.27 seconds

                                                       Time (seconds)
Module                                       User      System        Wall        Calls

--------------------------------------------------------------------------------------

**************************************************************************************

Host: wireless-10-104-54-138.umd.edu

Timers On : Thu Oct  3 18:40:02 2019
Timers Off: Thu Oct  3 18:40:02 2019

Wall Time:        0.31 seconds

                                                       Time (seconds)
Module                                       User      System        Wall        Calls

--------------------------------------------------------------------------------------

**************************************************************************************

Host: wireless-10-104-54-138.umd.edu

Timers On : Thu Oct  3 18:40:45 2019
Timers Off: Thu Oct  3 18:40:45 2019

Wall Time:        0.27 seconds

                                                       Time (seconds)
Module                                       User      System        Wall        Calls

--------------------------------------------------------------------------------------

**************************************************************************************

Host: wireless-10-104-54-138.umd.edu

Timers On : Thu Oct  3 18:40:52 2019
Timers Off: Thu Oct  3 18:40:52 2019

Wall Time:        0.31 seconds

                                                       Time (seconds)
Module                                       User      System        Wall        Calls

--------------------------------------------------------------------------------------

**************************************************************************************

Host: wireless-10-104-54-138.umd.edu

Timers On : Thu Oct  3 18:41:36 2019
Timers Off: Thu Oct  3 18:41:37 2019

Wall Time:        0.70 seconds

                                                       Time (seconds)
Module                                       User      System        Wall        Calls
JK: (A|mn)                          :      0.000u      0.000s      0.001w      1 calls
JK: (A|Q)^-1/2                      :      0.017u      0.017s      0.017w      1 calls
JK: (Q|mn)                          :      0.000u      0.000s      0.000w      1 calls
HF: Form core H                     :      0.000u      0.000s      0.003w      2 calls
HF: Form S/X                        :      0.000u      0.000s      0.001w      2 calls
HF: Guess                           :      0.050u      0.000s      0.043w      2 calls
SAD Guess                           :      0.050u      0.000s      0.041w      1 calls
HF: Form G                          :      0.000u      0.000s      0.001w      9 calls
JK: D                               :      0.000u      0.000s      0.000w      9 calls
JK: USO2AO                          :      0.000u      0.000s      0.000w      9 calls
JK: JK                              :      0.000u      0.000s      0.000w      9 calls
JK: J                               :      0.000u      0.000s      0.000w      7 calls
JK: J1                              :      0.000u      0.000s      0.000w      7 calls
JK: J2                              :      0.000u      0.000s      0.000w      7 calls
JK: K                               :      0.000u      0.000s      0.000w      7 calls
JK: K1                              :      0.000u      0.000s      0.000w      7 calls
JK: K2                              :      0.000u      0.000s      0.000w      7 calls
DFH: compute_JK()                   :      0.000u      0.000s      0.000w      2 calls
DFH: Grabbing AOs                   :      0.000u      0.000s      0.000w      2 calls
DFH: compute_J                      :      0.000u      0.000s      0.000w      2 calls
DFH: compute_K                      :      0.000u      0.000s      0.000w      2 calls
JK: AO2USO                          :      0.000u      0.000s      0.000w      9 calls
HF: Form F                          :      0.000u      0.000s      0.001w      9 calls
HF: Form D                          :      0.000u      0.000s      0.000w      9 calls
HF: DIIS                            :      0.000u      0.000s      0.004w      8 calls
DIISManager::add_entry              :      0.000u      0.000s      0.001w      7 calls
DIISManager::extrapolate            :      0.000u      0.000s      0.000w      7 calls
bMatrix setup                       :      0.000u      0.000s      0.000w      7 calls
bMatrix pseudoinverse               :      0.000u      0.000s      0.000w      7 calls
New vector                          :      0.000u      0.000s      0.000w      7 calls
HF: Form C                          :      0.000u      0.000s      0.000w      8 calls
DFH: sparsity prep                  :      0.000u      0.000s      0.004w      1 calls
DFH: initialize()                   :      0.017u      0.000s      0.014w      1 calls
DFH: AO Construction                :      0.000u      0.000s      0.000w      1 calls
DFH: AO-Met. Contraction            :      0.000u      0.000s      0.000w      1 calls

--------------------------------------------------------------------------------------
JK: (A|mn)                          :      0.000u      0.000s      0.001w      1 calls
JK: (A|Q)^-1/2                      :      0.017u      0.017s      0.017w      1 calls
JK: (Q|mn)                          :      0.000u      0.000s      0.000w      1 calls
HF: Form core H                     :      0.000u      0.000s      0.003w      2 calls
HF: Form S/X                        :      0.000u      0.000s      0.001w      2 calls
HF: Guess                           :      0.050u      0.000s      0.043w      2 calls
| SAD Guess                         :      0.050u      0.000s      0.041w      1 calls
HF: Form G                          :      0.000u      0.000s      0.001w      9 calls
| JK: D                             :      0.000u      0.000s      0.000w      9 calls
| JK: USO2AO                        :      0.000u      0.000s      0.000w      9 calls
| JK: JK                            :      0.000u      0.000s      0.000w      9 calls
| | JK: J                           :      0.000u      0.000s      0.000w      7 calls
| | | JK: J1                        :      0.000u      0.000s      0.000w      7 calls
| | | JK: J2                        :      0.000u      0.000s      0.000w      7 calls
| | JK: K                           :      0.000u      0.000s      0.000w      7 calls
| | | JK: K1                        :      0.000u      0.000s      0.000w      7 calls
| | | JK: K2                        :      0.000u      0.000s      0.000w      7 calls
| | DFH: compute_JK()               :      0.000u      0.000s      0.000w      2 calls
| | | DFH: Grabbing AOs             :      0.000u      0.000s      0.000w      2 calls
| | | DFH: compute_J                :      0.000u      0.000s      0.000w      2 calls
| | | DFH: compute_K                :      0.000u      0.000s      0.000w      2 calls
| JK: AO2USO                        :      0.000u      0.000s      0.000w      9 calls
HF: Form F                          :      0.000u      0.000s      0.001w      9 calls
HF: Form D                          :      0.000u      0.000s      0.000w      9 calls
HF: DIIS                            :      0.000u      0.000s      0.004w      8 calls
| DIISManager::add_entry            :      0.000u      0.000s      0.001w      7 calls
| DIISManager::extrapolate          :      0.000u      0.000s      0.000w      7 calls
| | bMatrix setup                   :      0.000u      0.000s      0.000w      7 calls
| | bMatrix pseudoinverse           :      0.000u      0.000s      0.000w      7 calls
| | New vector                      :      0.000u      0.000s      0.000w      7 calls
HF: Form C                          :      0.000u      0.000s      0.000w      8 calls
DFH: sparsity prep                  :      0.000u      0.000s      0.004w      1 calls
DFH: initialize()                   :      0.017u      0.000s      0.014w      1 calls
| DFH: AO Construction              :      0.000u      0.000s      0.000w      1 calls
| DFH: AO-Met. Contraction          :      0.000u      0.000s      0.000w      1 calls

**************************************************************************************

Host: wireless-10-104-54-138.umd.edu

Timers On : Thu Oct  3 18:47:43 2019
Timers Off: Thu Oct  3 18:47:44 2019

Wall Time:        0.74 seconds

                                                       Time (seconds)
Module                                       User      System        Wall        Calls
JK: (A|mn)                          :      0.000u      0.000s      0.000w      1 calls
JK: (A|Q)^-1/2                      :      0.017u      0.000s      0.006w      1 calls
JK: (Q|mn)                          :      0.000u      0.000s      0.000w      1 calls
HF: Form core H                     :      0.000u      0.000s      0.002w      2 calls
HF: Form S/X                        :      0.000u      0.000s      0.000w      2 calls
HF: Guess                           :      0.050u      0.000s      0.036w      2 calls
SAD Guess                           :      0.050u      0.000s      0.035w      1 calls
HF: Form G                          :      0.000u      0.017s      0.001w      9 calls
JK: D                               :      0.000u      0.000s      0.000w      9 calls
JK: USO2AO                          :      0.000u      0.000s      0.000w      9 calls
JK: JK                              :      0.000u      0.017s      0.000w      9 calls
JK: J                               :      0.000u      0.000s      0.000w      7 calls
JK: J1                              :      0.000u      0.000s      0.000w      7 calls
JK: J2                              :      0.000u      0.000s      0.000w      7 calls
JK: K                               :      0.000u      0.000s      0.000w      7 calls
JK: K1                              :      0.000u      0.000s      0.000w      7 calls
JK: K2                              :      0.000u      0.000s      0.000w      7 calls
DFH: compute_JK()                   :      0.000u      0.017s      0.000w      2 calls
DFH: Grabbing AOs                   :      0.000u      0.000s      0.000w      2 calls
DFH: compute_J                      :      0.000u      0.000s      0.000w      2 calls
DFH: compute_K                      :      0.000u      0.000s      0.000w      2 calls
JK: AO2USO                          :      0.000u      0.000s      0.000w      9 calls
HF: Form F                          :      0.000u      0.000s      0.000w      9 calls
HF: Form D                          :      0.000u      0.000s      0.000w      9 calls
HF: DIIS                            :      0.017u      0.000s      0.003w      8 calls
DIISManager::add_entry              :      0.000u      0.000s      0.001w      7 calls
DIISManager::extrapolate            :      0.000u      0.000s      0.000w      7 calls
bMatrix setup                       :      0.000u      0.000s      0.000w      7 calls
bMatrix pseudoinverse               :      0.000u      0.000s      0.000w      7 calls
New vector                          :      0.000u      0.000s      0.000w      7 calls
HF: Form C                          :      0.000u      0.000s      0.000w      8 calls
DFH: sparsity prep                  :      0.017u      0.000s      0.003w      1 calls
DFH: initialize()                   :      0.017u      0.000s      0.011w      1 calls
DFH: AO Construction                :      0.000u      0.000s      0.000w      1 calls
DFH: AO-Met. Contraction            :      0.000u      0.000s      0.000w      1 calls

--------------------------------------------------------------------------------------
JK: (A|mn)                          :      0.000u      0.000s      0.000w      1 calls
JK: (A|Q)^-1/2                      :      0.017u      0.000s      0.006w      1 calls
JK: (Q|mn)                          :      0.000u      0.000s      0.000w      1 calls
HF: Form core H                     :      0.000u      0.000s      0.002w      2 calls
HF: Form S/X                        :      0.000u      0.000s      0.000w      2 calls
HF: Guess                           :      0.050u      0.000s      0.036w      2 calls
| SAD Guess                         :      0.050u      0.000s      0.035w      1 calls
HF: Form G                          :      0.000u      0.017s      0.001w      9 calls
| JK: D                             :      0.000u      0.000s      0.000w      9 calls
| JK: USO2AO                        :      0.000u      0.000s      0.000w      9 calls
| JK: JK                            :      0.000u      0.017s      0.000w      9 calls
| | JK: J                           :      0.000u      0.000s      0.000w      7 calls
| | | JK: J1                        :      0.000u      0.000s      0.000w      7 calls
| | | JK: J2                        :      0.000u      0.000s      0.000w      7 calls
| | JK: K                           :      0.000u      0.000s      0.000w      7 calls
| | | JK: K1                        :      0.000u      0.000s      0.000w      7 calls
| | | JK: K2                        :      0.000u      0.000s      0.000w      7 calls
| | DFH: compute_JK()               :      0.000u      0.017s      0.000w      2 calls
| | | DFH: Grabbing AOs             :      0.000u      0.000s      0.000w      2 calls
| | | DFH: compute_J                :      0.000u      0.000s      0.000w      2 calls
| | | DFH: compute_K                :      0.000u      0.000s      0.000w      2 calls
| JK: AO2USO                        :      0.000u      0.000s      0.000w      9 calls
HF: Form F                          :      0.000u      0.000s      0.000w      9 calls
HF: Form D                          :      0.000u      0.000s      0.000w      9 calls
HF: DIIS                            :      0.017u      0.000s      0.003w      8 calls
| DIISManager::add_entry            :      0.000u      0.000s      0.001w      7 calls
| DIISManager::extrapolate          :      0.000u      0.000s      0.000w      7 calls
| | bMatrix setup                   :      0.000u      0.000s      0.000w      7 calls
| | bMatrix pseudoinverse           :      0.000u      0.000s      0.000w      7 calls
| | New vector                      :      0.000u      0.000s      0.000w      7 calls
HF: Form C                          :      0.000u      0.000s      0.000w      8 calls
DFH: sparsity prep                  :      0.017u      0.000s      0.003w      1 calls
DFH: initialize()                   :      0.017u      0.000s      0.011w      1 calls
| DFH: AO Construction              :      0.000u      0.000s      0.000w      1 calls
| DFH: AO-Met. Contraction          :      0.000u      0.000s      0.000w      1 calls

**************************************************************************************

Host: wireless-10-104-54-138.umd.edu

Timers On : Thu Oct  3 18:50:06 2019
Timers Off: Thu Oct  3 18:50:07 2019

Wall Time:        0.67 seconds

                                                       Time (seconds)
Module                                       User      System        Wall        Calls
JK: (A|mn)                          :      0.017u      0.000s      0.000w      1 calls
JK: (A|Q)^-1/2                      :      0.000u      0.000s      0.007w      1 calls
JK: (Q|mn)                          :      0.000u      0.000s      0.000w      1 calls
HF: Form core H                     :      0.000u      0.000s      0.002w      2 calls
HF: Form S/X                        :      0.000u      0.000s      0.000w      2 calls
HF: Guess                           :      0.067u      0.000s      0.045w      2 calls
SAD Guess                           :      0.067u      0.000s      0.043w      1 calls
HF: Form G                          :      0.000u      0.000s      0.000w      5 calls
JK: D                               :      0.000u      0.000s      0.000w      5 calls
JK: USO2AO                          :      0.000u      0.000s      0.000w      5 calls
JK: JK                              :      0.000u      0.000s      0.000w      5 calls
JK: J                               :      0.000u      0.000s      0.000w      3 calls
JK: J1                              :      0.000u      0.000s      0.000w      3 calls
JK: J2                              :      0.000u      0.000s      0.000w      3 calls
JK: K                               :      0.000u      0.000s      0.000w      3 calls
JK: K1                              :      0.000u      0.000s      0.000w      3 calls
JK: K2                              :      0.000u      0.000s      0.000w      3 calls
DFH: compute_JK()                   :      0.000u      0.000s      0.000w      2 calls
DFH: Grabbing AOs                   :      0.000u      0.000s      0.000w      2 calls
DFH: compute_J                      :      0.000u      0.000s      0.000w      2 calls
DFH: compute_K                      :      0.000u      0.000s      0.000w      2 calls
JK: AO2USO                          :      0.000u      0.000s      0.000w      5 calls
HF: Form F                          :      0.000u      0.000s      0.000w      5 calls
HF: Form D                          :      0.000u      0.000s      0.000w      5 calls
HF: DIIS                            :      0.000u      0.000s      0.002w      4 calls
DIISManager::add_entry              :      0.000u      0.000s      0.001w      3 calls
DIISManager::extrapolate            :      0.000u      0.000s      0.000w      3 calls
bMatrix setup                       :      0.000u      0.000s      0.000w      3 calls
bMatrix pseudoinverse               :      0.000u      0.000s      0.000w      3 calls
New vector                          :      0.000u      0.000s      0.000w      3 calls
HF: Form C                          :      0.000u      0.000s      0.000w      4 calls
DFH: sparsity prep                  :      0.017u      0.000s      0.003w      1 calls
DFH: initialize()                   :      0.017u      0.000s      0.012w      1 calls
DFH: AO Construction                :      0.000u      0.000s      0.000w      1 calls
DFH: AO-Met. Contraction            :      0.000u      0.000s      0.000w      1 calls

--------------------------------------------------------------------------------------
JK: (A|mn)                          :      0.017u      0.000s      0.000w      1 calls
JK: (A|Q)^-1/2                      :      0.000u      0.000s      0.007w      1 calls
JK: (Q|mn)                          :      0.000u      0.000s      0.000w      1 calls
HF: Form core H                     :      0.000u      0.000s      0.002w      2 calls
HF: Form S/X                        :      0.000u      0.000s      0.000w      2 calls
HF: Guess                           :      0.067u      0.000s      0.045w      2 calls
| SAD Guess                         :      0.067u      0.000s      0.043w      1 calls
HF: Form G                          :      0.000u      0.000s      0.000w      5 calls
| JK: D                             :      0.000u      0.000s      0.000w      5 calls
| JK: USO2AO                        :      0.000u      0.000s      0.000w      5 calls
| JK: JK                            :      0.000u      0.000s      0.000w      5 calls
| | JK: J                           :      0.000u      0.000s      0.000w      3 calls
| | | JK: J1                        :      0.000u      0.000s      0.000w      3 calls
| | | JK: J2                        :      0.000u      0.000s      0.000w      3 calls
| | JK: K                           :      0.000u      0.000s      0.000w      3 calls
| | | JK: K1                        :      0.000u      0.000s      0.000w      3 calls
| | | JK: K2                        :      0.000u      0.000s      0.000w      3 calls
| | DFH: compute_JK()               :      0.000u      0.000s      0.000w      2 calls
| | | DFH: Grabbing AOs             :      0.000u      0.000s      0.000w      2 calls
| | | DFH: compute_J                :      0.000u      0.000s      0.000w      2 calls
| | | DFH: compute_K                :      0.000u      0.000s      0.000w      2 calls
| JK: AO2USO                        :      0.000u      0.000s      0.000w      5 calls
HF: Form F                          :      0.000u      0.000s      0.000w      5 calls
HF: Form D                          :      0.000u      0.000s      0.000w      5 calls
HF: DIIS                            :      0.000u      0.000s      0.002w      4 calls
| DIISManager::add_entry            :      0.000u      0.000s      0.001w      3 calls
| DIISManager::extrapolate          :      0.000u      0.000s      0.000w      3 calls
| | bMatrix setup                   :      0.000u      0.000s      0.000w      3 calls
| | bMatrix pseudoinverse           :      0.000u      0.000s      0.000w      3 calls
| | New vector                      :      0.000u      0.000s      0.000w      3 calls
HF: Form C                          :      0.000u      0.000s      0.000w      4 calls
DFH: sparsity prep                  :      0.017u      0.000s      0.003w      1 calls
DFH: initialize()                   :      0.017u      0.000s      0.012w      1 calls
| DFH: AO Construction              :      0.000u      0.000s      0.000w      1 calls
| DFH: AO-Met. Contraction          :      0.000u      0.000s      0.000w      1 calls

**************************************************************************************

Host: wireless-10-104-54-138.umd.edu

Timers On : Thu Oct  3 18:54:40 2019
Timers Off: Thu Oct  3 18:54:40 2019

Wall Time:        0.62 seconds

                                                       Time (seconds)
Module                                       User      System        Wall        Calls
JK: (A|mn)                          :      0.000u      0.000s      0.000w      1 calls
JK: (A|Q)^-1/2                      :      0.017u      0.000s      0.007w      1 calls
JK: (Q|mn)                          :      0.000u      0.000s      0.000w      1 calls
HF: Form core H                     :      0.000u      0.000s      0.002w      2 calls
HF: Form S/X                        :      0.000u      0.000s      0.000w      2 calls
HF: Guess                           :      0.050u      0.000s      0.036w      2 calls
SAD Guess                           :      0.050u      0.000s      0.035w      1 calls
HF: Form G                          :      0.000u      0.000s      0.000w      5 calls
JK: D                               :      0.000u      0.000s      0.000w      5 calls
JK: USO2AO                          :      0.000u      0.000s      0.000w      5 calls
JK: JK                              :      0.000u      0.000s      0.000w      5 calls
JK: J                               :      0.000u      0.000s      0.000w      3 calls
JK: J1                              :      0.000u      0.000s      0.000w      3 calls
JK: J2                              :      0.000u      0.000s      0.000w      3 calls
JK: K                               :      0.000u      0.000s      0.000w      3 calls
JK: K1                              :      0.000u      0.000s      0.000w      3 calls
JK: K2                              :      0.000u      0.000s      0.000w      3 calls
DFH: compute_JK()                   :      0.000u      0.000s      0.000w      2 calls
DFH: Grabbing AOs                   :      0.000u      0.000s      0.000w      2 calls
DFH: compute_J                      :      0.000u      0.000s      0.000w      2 calls
DFH: compute_K                      :      0.000u      0.000s      0.000w      2 calls
JK: AO2USO                          :      0.000u      0.000s      0.000w      5 calls
HF: Form F                          :      0.000u      0.000s      0.000w      5 calls
HF: Form D                          :      0.000u      0.000s      0.000w      5 calls
HF: DIIS                            :      0.017u      0.000s      0.002w      4 calls
DIISManager::add_entry              :      0.000u      0.000s      0.001w      3 calls
DIISManager::extrapolate            :      0.000u      0.000s      0.000w      3 calls
bMatrix setup                       :      0.000u      0.000s      0.000w      3 calls
bMatrix pseudoinverse               :      0.000u      0.000s      0.000w      3 calls
New vector                          :      0.000u      0.000s      0.000w      3 calls
HF: Form C                          :      0.000u      0.000s      0.000w      4 calls
DFH: sparsity prep                  :      0.017u      0.000s      0.003w      1 calls
DFH: initialize()                   :      0.017u      0.000s      0.010w      1 calls
DFH: AO Construction                :      0.000u      0.000s      0.000w      1 calls
DFH: AO-Met. Contraction            :      0.000u      0.000s      0.000w      1 calls

--------------------------------------------------------------------------------------
JK: (A|mn)                          :      0.000u      0.000s      0.000w      1 calls
JK: (A|Q)^-1/2                      :      0.017u      0.000s      0.007w      1 calls
JK: (Q|mn)                          :      0.000u      0.000s      0.000w      1 calls
HF: Form core H                     :      0.000u      0.000s      0.002w      2 calls
HF: Form S/X                        :      0.000u      0.000s      0.000w      2 calls
HF: Guess                           :      0.050u      0.000s      0.036w      2 calls
| SAD Guess                         :      0.050u      0.000s      0.035w      1 calls
HF: Form G                          :      0.000u      0.000s      0.000w      5 calls
| JK: D                             :      0.000u      0.000s      0.000w      5 calls
| JK: USO2AO                        :      0.000u      0.000s      0.000w      5 calls
| JK: JK                            :      0.000u      0.000s      0.000w      5 calls
| | JK: J                           :      0.000u      0.000s      0.000w      3 calls
| | | JK: J1                        :      0.000u      0.000s      0.000w      3 calls
| | | JK: J2                        :      0.000u      0.000s      0.000w      3 calls
| | JK: K                           :      0.000u      0.000s      0.000w      3 calls
| | | JK: K1                        :      0.000u      0.000s      0.000w      3 calls
| | | JK: K2                        :      0.000u      0.000s      0.000w      3 calls
| | DFH: compute_JK()               :      0.000u      0.000s      0.000w      2 calls
| | | DFH: Grabbing AOs             :      0.000u      0.000s      0.000w      2 calls
| | | DFH: compute_J                :      0.000u      0.000s      0.000w      2 calls
| | | DFH: compute_K                :      0.000u      0.000s      0.000w      2 calls
| JK: AO2USO                        :      0.000u      0.000s      0.000w      5 calls
HF: Form F                          :      0.000u      0.000s      0.000w      5 calls
HF: Form D                          :      0.000u      0.000s      0.000w      5 calls
HF: DIIS                            :      0.017u      0.000s      0.002w      4 calls
| DIISManager::add_entry            :      0.000u      0.000s      0.001w      3 calls
| DIISManager::extrapolate          :      0.000u      0.000s      0.000w      3 calls
| | bMatrix setup                   :      0.000u      0.000s      0.000w      3 calls
| | bMatrix pseudoinverse           :      0.000u      0.000s      0.000w      3 calls
| | New vector                      :      0.000u      0.000s      0.000w      3 calls
HF: Form C                          :      0.000u      0.000s      0.000w      4 calls
DFH: sparsity prep                  :      0.017u      0.000s      0.003w      1 calls
DFH: initialize()                   :      0.017u      0.000s      0.010w      1 calls
| DFH: AO Construction              :      0.000u      0.000s      0.000w      1 calls
| DFH: AO-Met. Contraction          :      0.000u      0.000s      0.000w      1 calls

**************************************************************************************
