
Host: wireless-10-104-54-138.umd.edu

Timers On : Thu Oct  3 19:22:06 2019
Timers Off: Thu Oct  3 19:22:07 2019

Wall Time:        0.71 seconds

                                                       Time (seconds)
Module                                       User      System        Wall        Calls

--------------------------------------------------------------------------------------

**************************************************************************************

Host: wireless-10-104-54-138.umd.edu

Timers On : Thu Oct  3 19:22:57 2019
Timers Off: Thu Oct  3 19:22:57 2019

Wall Time:        0.46 seconds

                                                       Time (seconds)
Module                                       User      System        Wall        Calls

--------------------------------------------------------------------------------------

**************************************************************************************

Host: wireless-10-104-54-138.umd.edu

Timers On : Thu Oct  3 19:23:46 2019
Timers Off: Thu Oct  3 19:23:46 2019

Wall Time:        0.31 seconds

                                                       Time (seconds)
Module                                       User      System        Wall        Calls

--------------------------------------------------------------------------------------

**************************************************************************************

Host: wireless-10-104-54-138.umd.edu

Timers On : Thu Oct  3 19:25:08 2019
Timers Off: Thu Oct  3 19:25:08 2019

Wall Time:        0.74 seconds

                                                       Time (seconds)
Module                                       User      System        Wall        Calls

--------------------------------------------------------------------------------------

**************************************************************************************

Host: wireless-10-104-54-138.umd.edu

Timers On : Thu Oct  3 19:25:34 2019
Timers Off: Thu Oct  3 19:25:34 2019

Wall Time:        0.31 seconds

                                                       Time (seconds)
Module                                       User      System        Wall        Calls

--------------------------------------------------------------------------------------

**************************************************************************************

Host: Ethans-MBP-5.fios-router.home

Timers On : Fri Oct  4 15:37:02 2019
Timers Off: Fri Oct  4 15:37:03 2019

Wall Time:        0.65 seconds

                                                       Time (seconds)
Module                                       User      System        Wall        Calls

--------------------------------------------------------------------------------------

**************************************************************************************

Host: Ethans-MBP-5.fios-router.home

Timers On : Fri Oct  4 15:37:09 2019
Timers Off: Fri Oct  4 15:37:10 2019

Wall Time:        0.32 seconds

                                                       Time (seconds)
Module                                       User      System        Wall        Calls

--------------------------------------------------------------------------------------

**************************************************************************************

Host: Ethans-MBP-5.fios-router.home

Timers On : Fri Oct  4 15:41:02 2019
Timers Off: Fri Oct  4 15:41:03 2019

Wall Time:        0.84 seconds

                                                       Time (seconds)
Module                                       User      System        Wall        Calls

--------------------------------------------------------------------------------------

**************************************************************************************

Host: Ethans-MBP-5.fios-router.home

Timers On : Fri Oct  4 15:46:17 2019
Timers Off: Fri Oct  4 15:46:17 2019

Wall Time:        0.31 seconds

                                                       Time (seconds)
Module                                       User      System        Wall        Calls

--------------------------------------------------------------------------------------

**************************************************************************************

Host: Ethans-MBP-5.fios-router.home

Timers On : Fri Oct  4 16:00:36 2019
Timers Off: Fri Oct  4 16:00:37 2019

Wall Time:        0.83 seconds

                                                       Time (seconds)
Module                                       User      System        Wall        Calls

--------------------------------------------------------------------------------------

**************************************************************************************

Host: Ethans-MBP-5.fios-router.home

Timers On : Fri Oct  4 16:03:12 2019
Timers Off: Fri Oct  4 16:03:12 2019

Wall Time:        0.67 seconds

                                                       Time (seconds)
Module                                       User      System        Wall        Calls

--------------------------------------------------------------------------------------

**************************************************************************************

Host: Ethans-MBP-5.fios-router.home

Timers On : Fri Oct  4 16:03:19 2019
Timers Off: Fri Oct  4 16:03:19 2019

Wall Time:        0.33 seconds

                                                       Time (seconds)
Module                                       User      System        Wall        Calls

--------------------------------------------------------------------------------------

**************************************************************************************

Host: Ethans-MBP-5.fios-router.home

Timers On : Fri Oct  4 16:04:14 2019
Timers Off: Fri Oct  4 16:04:14 2019

Wall Time:        0.32 seconds

                                                       Time (seconds)
Module                                       User      System        Wall        Calls

--------------------------------------------------------------------------------------

**************************************************************************************

Host: Ethans-MBP-5.fios-router.home

Timers On : Fri Oct  4 16:04:37 2019
Timers Off: Fri Oct  4 16:04:37 2019

Wall Time:        0.33 seconds

                                                       Time (seconds)
Module                                       User      System        Wall        Calls

--------------------------------------------------------------------------------------

**************************************************************************************

Host: Ethans-MBP-5.fios-router.home

Timers On : Fri Oct  4 16:04:51 2019
Timers Off: Fri Oct  4 16:04:52 2019

Wall Time:        0.36 seconds

                                                       Time (seconds)
Module                                       User      System        Wall        Calls

--------------------------------------------------------------------------------------

**************************************************************************************

Host: Ethans-MBP-5.fios-router.home

Timers On : Fri Oct  4 16:06:44 2019
Timers Off: Fri Oct  4 16:06:44 2019

Wall Time:        0.32 seconds

                                                       Time (seconds)
Module                                       User      System        Wall        Calls

--------------------------------------------------------------------------------------

**************************************************************************************

Host: Ethans-MBP-5.fios-router.home

Timers On : Fri Oct  4 16:06:53 2019
Timers Off: Fri Oct  4 16:06:53 2019

Wall Time:        0.32 seconds

                                                       Time (seconds)
Module                                       User      System        Wall        Calls

--------------------------------------------------------------------------------------

**************************************************************************************

Host: Ethans-MBP-5.fios-router.home

Timers On : Fri Oct  4 16:09:22 2019
Timers Off: Fri Oct  4 16:09:23 2019

Wall Time:        0.32 seconds

                                                       Time (seconds)
Module                                       User      System        Wall        Calls

--------------------------------------------------------------------------------------

**************************************************************************************

Host: Ethans-MBP-5.fios-router.home

Timers On : Fri Oct  4 16:10:08 2019
Timers Off: Fri Oct  4 16:10:08 2019

Wall Time:        0.33 seconds

                                                       Time (seconds)
Module                                       User      System        Wall        Calls

--------------------------------------------------------------------------------------

**************************************************************************************

Host: Ethans-MBP-5.fios-router.home

Timers On : Fri Oct  4 16:14:32 2019
Timers Off: Fri Oct  4 16:14:33 2019

Wall Time:        0.70 seconds

                                                       Time (seconds)
Module                                       User      System        Wall        Calls

--------------------------------------------------------------------------------------

**************************************************************************************

Host: Ethans-MBP-5.fios-router.home

Timers On : Fri Oct  4 16:14:51 2019
Timers Off: Fri Oct  4 16:14:52 2019

Wall Time:        0.32 seconds

                                                       Time (seconds)
Module                                       User      System        Wall        Calls

--------------------------------------------------------------------------------------

**************************************************************************************

Host: Ethans-MBP-5.fios-router.home

Timers On : Fri Oct  4 16:15:17 2019
Timers Off: Fri Oct  4 16:15:17 2019

Wall Time:        0.32 seconds

                                                       Time (seconds)
Module                                       User      System        Wall        Calls

--------------------------------------------------------------------------------------

**************************************************************************************

Host: Ethans-MBP-5.fios-router.home

Timers On : Fri Oct  4 16:15:29 2019
Timers Off: Fri Oct  4 16:15:29 2019

Wall Time:        0.32 seconds

                                                       Time (seconds)
Module                                       User      System        Wall        Calls

--------------------------------------------------------------------------------------

**************************************************************************************

Host: Ethans-MBP-5.fios-router.home

Timers On : Fri Oct  4 16:15:48 2019
Timers Off: Fri Oct  4 16:15:48 2019

Wall Time:        0.32 seconds

                                                       Time (seconds)
Module                                       User      System        Wall        Calls

--------------------------------------------------------------------------------------

**************************************************************************************

Host: Ethans-MBP-5.fios-router.home

Timers On : Fri Oct  4 16:16:10 2019
Timers Off: Fri Oct  4 16:16:10 2019

Wall Time:        0.32 seconds

                                                       Time (seconds)
Module                                       User      System        Wall        Calls

--------------------------------------------------------------------------------------

**************************************************************************************

Host: Ethans-MBP-5.fios-router.home

Timers On : Sat Oct  5 13:04:02 2019
Timers Off: Sat Oct  5 13:04:03 2019

Wall Time:        1.01 seconds

                                                       Time (seconds)
Module                                       User      System        Wall        Calls

--------------------------------------------------------------------------------------

**************************************************************************************

Host: Ethans-MBP-5.fios-router.home

Timers On : Sat Oct  5 13:04:18 2019
Timers Off: Sat Oct  5 13:04:18 2019

Wall Time:        0.32 seconds

                                                       Time (seconds)
Module                                       User      System        Wall        Calls

--------------------------------------------------------------------------------------

**************************************************************************************

Host: Ethans-MBP-5.fios-router.home

Timers On : Sun Oct  6 11:44:11 2019
Timers Off: Sun Oct  6 11:44:12 2019

Wall Time:        1.04 seconds

                                                       Time (seconds)
Module                                       User      System        Wall        Calls

--------------------------------------------------------------------------------------

**************************************************************************************

Host: Ethans-MBP-5.fios-router.home

Timers On : Sun Oct  6 12:13:18 2019
Timers Off: Sun Oct  6 12:13:19 2019

Wall Time:        0.38 seconds

                                                       Time (seconds)
Module                                       User      System        Wall        Calls

--------------------------------------------------------------------------------------

**************************************************************************************

Host: Ethans-MBP-5.fios-router.home

Timers On : Sun Oct  6 12:13:28 2019
Timers Off: Sun Oct  6 12:13:28 2019

Wall Time:        0.32 seconds

                                                       Time (seconds)
Module                                       User      System        Wall        Calls

--------------------------------------------------------------------------------------

**************************************************************************************

Host: Ethans-MBP-5.fios-router.home

Timers On : Sun Oct  6 12:26:00 2019
Timers Off: Sun Oct  6 12:26:01 2019

Wall Time:        0.30 seconds

                                                       Time (seconds)
Module                                       User      System        Wall        Calls

--------------------------------------------------------------------------------------

**************************************************************************************

Host: Ethans-MBP-5.fios-router.home

Timers On : Sun Oct  6 12:28:52 2019
Timers Off: Sun Oct  6 12:28:52 2019

Wall Time:        0.31 seconds

                                                       Time (seconds)
Module                                       User      System        Wall        Calls

--------------------------------------------------------------------------------------

**************************************************************************************

Host: Ethans-MBP-5.fios-router.home

Timers On : Sun Oct  6 12:28:59 2019
Timers Off: Sun Oct  6 12:28:59 2019

Wall Time:        0.30 seconds

                                                       Time (seconds)
Module                                       User      System        Wall        Calls

--------------------------------------------------------------------------------------

**************************************************************************************

Host: Ethans-MBP-5.fios-router.home

Timers On : Sun Oct  6 12:29:24 2019
Timers Off: Sun Oct  6 12:29:25 2019

Wall Time:        0.31 seconds

                                                       Time (seconds)
Module                                       User      System        Wall        Calls

--------------------------------------------------------------------------------------

**************************************************************************************

Host: Ethans-MBP-5.fios-router.home

Timers On : Sun Oct  6 12:30:51 2019
Timers Off: Sun Oct  6 12:30:52 2019

Wall Time:        0.32 seconds

                                                       Time (seconds)
Module                                       User      System        Wall        Calls

--------------------------------------------------------------------------------------

**************************************************************************************

Host: Ethans-MBP-5.fios-router.home

Timers On : Sun Oct  6 12:32:48 2019
Timers Off: Sun Oct  6 12:32:48 2019

Wall Time:        0.27 seconds

                                                       Time (seconds)
Module                                       User      System        Wall        Calls

--------------------------------------------------------------------------------------

**************************************************************************************

Host: Ethans-MBP-5.fios-router.home

Timers On : Sun Oct  6 12:32:58 2019
Timers Off: Sun Oct  6 12:32:58 2019

Wall Time:        0.32 seconds

                                                       Time (seconds)
Module                                       User      System        Wall        Calls

--------------------------------------------------------------------------------------

**************************************************************************************

Host: Ethans-MBP-5.fios-router.home

Timers On : Sun Oct  6 12:33:52 2019
Timers Off: Sun Oct  6 12:33:53 2019

Wall Time:        0.36 seconds

                                                       Time (seconds)
Module                                       User      System        Wall        Calls

--------------------------------------------------------------------------------------

**************************************************************************************

Host: Ethans-MBP-5.fios-router.home

Timers On : Sun Oct  6 12:34:16 2019
Timers Off: Sun Oct  6 12:34:16 2019

Wall Time:        0.29 seconds

                                                       Time (seconds)
Module                                       User      System        Wall        Calls

--------------------------------------------------------------------------------------

**************************************************************************************

Host: Ethans-MBP-5.fios-router.home

Timers On : Sun Oct  6 12:34:31 2019
Timers Off: Sun Oct  6 12:34:32 2019

Wall Time:        0.35 seconds

                                                       Time (seconds)
Module                                       User      System        Wall        Calls

--------------------------------------------------------------------------------------

**************************************************************************************

Host: wireless-10-104-54-57.umd.edu

Timers On : Mon Oct  7 10:34:56 2019
Timers Off: Mon Oct  7 10:34:57 2019

Wall Time:        0.82 seconds

                                                       Time (seconds)
Module                                       User      System        Wall        Calls

--------------------------------------------------------------------------------------

**************************************************************************************

Host: Ethans-MBP-5.fios-router.home

Timers On : Mon Oct 14 19:58:32 2019
Timers Off: Mon Oct 14 19:58:33 2019

Wall Time:        0.96 seconds

                                                       Time (seconds)
Module                                       User      System        Wall        Calls

--------------------------------------------------------------------------------------

**************************************************************************************

Host: Ethans-MBP-5.fios-router.home

Timers On : Mon Oct 14 19:59:01 2019
Timers Off: Mon Oct 14 19:59:02 2019

Wall Time:        0.37 seconds

                                                       Time (seconds)
Module                                       User      System        Wall        Calls

--------------------------------------------------------------------------------------

**************************************************************************************

Host: Ethans-MBP-5.fios-router.home

Timers On : Mon Oct 14 19:59:10 2019
Timers Off: Mon Oct 14 19:59:10 2019

Wall Time:        0.32 seconds

                                                       Time (seconds)
Module                                       User      System        Wall        Calls

--------------------------------------------------------------------------------------

**************************************************************************************

Host: Ethans-MBP-5.fios-router.home

Timers On : Mon Oct 14 20:51:49 2019
Timers Off: Mon Oct 14 20:51:49 2019

Wall Time:        0.46 seconds

                                                       Time (seconds)
Module                                       User      System        Wall        Calls

--------------------------------------------------------------------------------------

**************************************************************************************

Host: Ethans-MBP-5.fios-router.home

Timers On : Mon Oct 14 20:52:03 2019
Timers Off: Mon Oct 14 20:52:04 2019

Wall Time:        0.31 seconds

                                                       Time (seconds)
Module                                       User      System        Wall        Calls

--------------------------------------------------------------------------------------

**************************************************************************************

Host: Ethans-MBP-5.fios-router.home

Timers On : Mon Oct 14 20:52:17 2019
Timers Off: Mon Oct 14 20:52:17 2019

Wall Time:        0.32 seconds

                                                       Time (seconds)
Module                                       User      System        Wall        Calls

--------------------------------------------------------------------------------------

**************************************************************************************

Host: Ethans-MBP-5.fios-router.home

Timers On : Mon Oct 14 20:52:24 2019
Timers Off: Mon Oct 14 20:52:24 2019

Wall Time:        0.33 seconds

                                                       Time (seconds)
Module                                       User      System        Wall        Calls

--------------------------------------------------------------------------------------

**************************************************************************************

Host: Ethans-MBP-5.fios-router.home

Timers On : Mon Oct 14 20:52:43 2019
Timers Off: Mon Oct 14 20:52:44 2019

Wall Time:        0.32 seconds

                                                       Time (seconds)
Module                                       User      System        Wall        Calls

--------------------------------------------------------------------------------------

**************************************************************************************

Host: Ethans-MBP-5.fios-router.home

Timers On : Mon Oct 14 20:53:01 2019
Timers Off: Mon Oct 14 20:53:02 2019

Wall Time:        0.31 seconds

                                                       Time (seconds)
Module                                       User      System        Wall        Calls

--------------------------------------------------------------------------------------

**************************************************************************************

Host: Ethans-MBP-5.fios-router.home

Timers On : Mon Oct 14 20:53:09 2019
Timers Off: Mon Oct 14 20:53:09 2019

Wall Time:        0.31 seconds

                                                       Time (seconds)
Module                                       User      System        Wall        Calls

--------------------------------------------------------------------------------------

**************************************************************************************

Host: Ethans-MBP-5.fios-router.home

Timers On : Mon Oct 14 21:07:40 2019
Timers Off: Mon Oct 14 21:07:40 2019

Wall Time:        0.32 seconds

                                                       Time (seconds)
Module                                       User      System        Wall        Calls

--------------------------------------------------------------------------------------

**************************************************************************************

Host: Ethans-MBP-5.fios-router.home

Timers On : Mon Oct 14 21:58:14 2019
Timers Off: Mon Oct 14 21:58:15 2019

Wall Time:        0.47 seconds

                                                       Time (seconds)
Module                                       User      System        Wall        Calls

--------------------------------------------------------------------------------------

**************************************************************************************

Host: Ethans-MBP-5.fios-router.home

Timers On : Mon Oct 14 22:15:53 2019
Timers Off: Mon Oct 14 22:15:53 2019

Wall Time:        0.61 seconds

                                                       Time (seconds)
Module                                       User      System        Wall        Calls

--------------------------------------------------------------------------------------

**************************************************************************************

Host: Ethans-MBP-5.fios-router.home

Timers On : Mon Oct 14 22:16:26 2019
Timers Off: Mon Oct 14 22:16:26 2019

Wall Time:        0.31 seconds

                                                       Time (seconds)
Module                                       User      System        Wall        Calls

--------------------------------------------------------------------------------------

**************************************************************************************

Host: Ethans-MBP-5.fios-router.home

Timers On : Mon Oct 14 22:33:42 2019
Timers Off: Mon Oct 14 22:33:43 2019

Wall Time:        0.60 seconds

                                                       Time (seconds)
Module                                       User      System        Wall        Calls

--------------------------------------------------------------------------------------

**************************************************************************************

Host: Ethans-MBP-5.fios-router.home

Timers On : Mon Oct 14 22:34:17 2019
Timers Off: Mon Oct 14 22:34:17 2019

Wall Time:        0.33 seconds

                                                       Time (seconds)
Module                                       User      System        Wall        Calls

--------------------------------------------------------------------------------------

**************************************************************************************

Host: Ethans-MBP-5.fios-router.home

Timers On : Mon Oct 14 22:39:15 2019
Timers Off: Mon Oct 14 22:39:16 2019

Wall Time:        0.45 seconds

                                                       Time (seconds)
Module                                       User      System        Wall        Calls

--------------------------------------------------------------------------------------

**************************************************************************************

Host: Ethans-MBP-5.fios-router.home

Timers On : Mon Oct 14 22:39:42 2019
Timers Off: Mon Oct 14 22:39:42 2019

Wall Time:        0.32 seconds

                                                       Time (seconds)
Module                                       User      System        Wall        Calls

--------------------------------------------------------------------------------------

**************************************************************************************

Host: Ethans-MBP-5.fios-router.home

Timers On : Mon Oct 14 22:39:50 2019
Timers Off: Mon Oct 14 22:39:50 2019

Wall Time:        0.31 seconds

                                                       Time (seconds)
Module                                       User      System        Wall        Calls

--------------------------------------------------------------------------------------

**************************************************************************************

Host: Ethans-MBP-5.fios-router.home

Timers On : Mon Oct 14 22:40:03 2019
Timers Off: Mon Oct 14 22:40:03 2019

Wall Time:        0.31 seconds

                                                       Time (seconds)
Module                                       User      System        Wall        Calls

--------------------------------------------------------------------------------------

**************************************************************************************

Host: Ethans-MBP-5.fios-router.home

Timers On : Mon Oct 14 22:40:40 2019
Timers Off: Mon Oct 14 22:40:41 2019

Wall Time:        0.31 seconds

                                                       Time (seconds)
Module                                       User      System        Wall        Calls

--------------------------------------------------------------------------------------

**************************************************************************************

Host: Ethans-MBP-5.fios-router.home

Timers On : Mon Oct 14 22:41:19 2019
Timers Off: Mon Oct 14 22:41:19 2019

Wall Time:        0.31 seconds

                                                       Time (seconds)
Module                                       User      System        Wall        Calls

--------------------------------------------------------------------------------------

**************************************************************************************

Host: Ethans-MBP-5.fios-router.home

Timers On : Mon Oct 14 22:41:54 2019
Timers Off: Mon Oct 14 22:41:54 2019

Wall Time:        0.32 seconds

                                                       Time (seconds)
Module                                       User      System        Wall        Calls

--------------------------------------------------------------------------------------

**************************************************************************************

Host: Ethans-MBP-5.fios-router.home

Timers On : Mon Oct 14 22:43:28 2019
Timers Off: Mon Oct 14 22:43:28 2019

Wall Time:        0.32 seconds

                                                       Time (seconds)
Module                                       User      System        Wall        Calls

--------------------------------------------------------------------------------------

**************************************************************************************

Host: Ethans-MBP-5.fios-router.home

Timers On : Mon Oct 14 22:43:42 2019
Timers Off: Mon Oct 14 22:43:42 2019

Wall Time:        0.33 seconds

                                                       Time (seconds)
Module                                       User      System        Wall        Calls

--------------------------------------------------------------------------------------

**************************************************************************************

Host: Ethans-MBP-5.fios-router.home

Timers On : Mon Oct 14 22:47:57 2019
Timers Off: Mon Oct 14 22:47:57 2019

Wall Time:        0.52 seconds

                                                       Time (seconds)
Module                                       User      System        Wall        Calls

--------------------------------------------------------------------------------------

**************************************************************************************

Host: Ethans-MBP-5.fios-router.home

Timers On : Mon Oct 14 22:48:12 2019
Timers Off: Mon Oct 14 22:48:13 2019

Wall Time:        0.32 seconds

                                                       Time (seconds)
Module                                       User      System        Wall        Calls

--------------------------------------------------------------------------------------

**************************************************************************************

Host: Ethans-MBP-5.fios-router.home

Timers On : Mon Oct 14 22:48:27 2019
Timers Off: Mon Oct 14 22:48:27 2019

Wall Time:        0.32 seconds

                                                       Time (seconds)
Module                                       User      System        Wall        Calls

--------------------------------------------------------------------------------------

**************************************************************************************

Host: Ethans-MBP-5.fios-router.home

Timers On : Mon Oct 14 23:05:35 2019
Timers Off: Mon Oct 14 23:05:35 2019

Wall Time:        0.45 seconds

                                                       Time (seconds)
Module                                       User      System        Wall        Calls

--------------------------------------------------------------------------------------

**************************************************************************************

Host: Ethans-MBP-5.fios-router.home

Timers On : Mon Oct 14 23:05:53 2019
Timers Off: Mon Oct 14 23:05:53 2019

Wall Time:        0.32 seconds

                                                       Time (seconds)
Module                                       User      System        Wall        Calls

--------------------------------------------------------------------------------------

**************************************************************************************

Host: Ethans-MBP-5.fios-router.home

Timers On : Mon Oct 14 23:06:43 2019
Timers Off: Mon Oct 14 23:06:43 2019

Wall Time:        0.31 seconds

                                                       Time (seconds)
Module                                       User      System        Wall        Calls

--------------------------------------------------------------------------------------

**************************************************************************************

Host: Ethans-MBP-5.fios-router.home

Timers On : Mon Oct 14 23:07:10 2019
Timers Off: Mon Oct 14 23:07:10 2019

Wall Time:        0.34 seconds

                                                       Time (seconds)
Module                                       User      System        Wall        Calls

--------------------------------------------------------------------------------------

**************************************************************************************

Host: Ethans-MBP-5.fios-router.home

Timers On : Tue Oct 15 16:08:41 2019
Timers Off: Tue Oct 15 16:08:42 2019

Wall Time:        0.86 seconds

                                                       Time (seconds)
Module                                       User      System        Wall        Calls

--------------------------------------------------------------------------------------

**************************************************************************************

Host: wireless-10-104-56-201.umd.edu

Timers On : Wed Oct 16 14:14:12 2019
Timers Off: Wed Oct 16 14:14:13 2019

Wall Time:        1.02 seconds

                                                       Time (seconds)
Module                                       User      System        Wall        Calls

--------------------------------------------------------------------------------------

**************************************************************************************

Host: Ethans-MBP-5.fios-router.home

Timers On : Wed Oct 16 20:49:18 2019
Timers Off: Wed Oct 16 20:49:19 2019

Wall Time:        1.02 seconds

                                                       Time (seconds)
Module                                       User      System        Wall        Calls

--------------------------------------------------------------------------------------

**************************************************************************************

Host: Ethans-MBP-5.fios-router.home

Timers On : Wed Oct 16 20:49:52 2019
Timers Off: Wed Oct 16 20:49:52 2019

Wall Time:        0.32 seconds

                                                       Time (seconds)
Module                                       User      System        Wall        Calls

--------------------------------------------------------------------------------------

**************************************************************************************

Host: Ethans-MBP-5.fios-router.home

Timers On : Sat Nov  2 15:06:00 2019
Timers Off: Sat Nov  2 15:06:00 2019

Wall Time:        0.85 seconds

                                                       Time (seconds)
Module                                       User      System        Wall        Calls

--------------------------------------------------------------------------------------

**************************************************************************************

Host: Ethans-MBP-5.fios-router.home

Timers On : Sat Nov  2 15:06:11 2019
Timers Off: Sat Nov  2 15:06:11 2019

Wall Time:        0.34 seconds

                                                       Time (seconds)
Module                                       User      System        Wall        Calls

--------------------------------------------------------------------------------------

**************************************************************************************

Host: Ethans-MBP-5.fios-router.home

Timers On : Sat Nov  2 15:06:28 2019
Timers Off: Sat Nov  2 15:06:29 2019

Wall Time:        0.30 seconds

                                                       Time (seconds)
Module                                       User      System        Wall        Calls

--------------------------------------------------------------------------------------

**************************************************************************************

Host: Ethans-MBP-5.fios-router.home

Timers On : Sat Nov  2 15:06:51 2019
Timers Off: Sat Nov  2 15:06:51 2019

Wall Time:        0.30 seconds

                                                       Time (seconds)
Module                                       User      System        Wall        Calls

--------------------------------------------------------------------------------------

**************************************************************************************

Host: Ethans-MBP-5.fios-router.home

Timers On : Sun Nov  3 12:47:42 2019
Timers Off: Sun Nov  3 12:47:43 2019

Wall Time:        0.81 seconds

                                                       Time (seconds)
Module                                       User      System        Wall        Calls

--------------------------------------------------------------------------------------

**************************************************************************************

Host: Ethans-MBP-5.fios-router.home

Timers On : Sun Nov  3 12:48:14 2019
Timers Off: Sun Nov  3 12:48:14 2019

Wall Time:        0.32 seconds

                                                       Time (seconds)
Module                                       User      System        Wall        Calls

--------------------------------------------------------------------------------------

**************************************************************************************

Host: Ethans-MBP-5.fios-router.home

Timers On : Sun Nov  3 12:50:37 2019
Timers Off: Sun Nov  3 12:50:37 2019

Wall Time:        0.31 seconds

                                                       Time (seconds)
Module                                       User      System        Wall        Calls

--------------------------------------------------------------------------------------

**************************************************************************************

Host: Ethans-MBP-5.fios-router.home

Timers On : Sun Nov  3 12:51:42 2019
Timers Off: Sun Nov  3 12:51:42 2019

Wall Time:        0.30 seconds

                                                       Time (seconds)
Module                                       User      System        Wall        Calls

--------------------------------------------------------------------------------------

**************************************************************************************

Host: Ethans-MBP-5.fios-router.home

Timers On : Sun Nov  3 12:52:44 2019
Timers Off: Sun Nov  3 12:52:45 2019

Wall Time:        0.29 seconds

                                                       Time (seconds)
Module                                       User      System        Wall        Calls

--------------------------------------------------------------------------------------

**************************************************************************************

Host: Ethans-MBP-5.fios-router.home

Timers On : Sun Nov  3 13:01:23 2019
Timers Off: Sun Nov  3 13:01:23 2019

Wall Time:        0.27 seconds

                                                       Time (seconds)
Module                                       User      System        Wall        Calls

--------------------------------------------------------------------------------------

**************************************************************************************

Host: Ethans-MBP-5.fios-router.home

Timers On : Sun Nov  3 13:06:36 2019
Timers Off: Sun Nov  3 13:06:36 2019

Wall Time:        0.31 seconds

                                                       Time (seconds)
Module                                       User      System        Wall        Calls

--------------------------------------------------------------------------------------

**************************************************************************************

Host: Ethans-MBP-5.fios-router.home

Timers On : Sun Nov  3 13:07:43 2019
Timers Off: Sun Nov  3 13:07:44 2019

Wall Time:        0.30 seconds

                                                       Time (seconds)
Module                                       User      System        Wall        Calls

--------------------------------------------------------------------------------------

**************************************************************************************

Host: Ethans-MBP-5.fios-router.home

Timers On : Sun Nov  3 13:10:41 2019
Timers Off: Sun Nov  3 13:10:41 2019

Wall Time:        0.28 seconds

                                                       Time (seconds)
Module                                       User      System        Wall        Calls

--------------------------------------------------------------------------------------

**************************************************************************************

Host: Ethans-MBP-5.fios-router.home

Timers On : Sun Nov  3 13:11:09 2019
Timers Off: Sun Nov  3 13:11:09 2019

Wall Time:        0.30 seconds

                                                       Time (seconds)
Module                                       User      System        Wall        Calls

--------------------------------------------------------------------------------------

**************************************************************************************

Host: Ethans-MBP-5.fios-router.home

Timers On : Sun Nov  3 13:25:22 2019
Timers Off: Sun Nov  3 13:25:22 2019

Wall Time:        0.30 seconds

                                                       Time (seconds)
Module                                       User      System        Wall        Calls

--------------------------------------------------------------------------------------

**************************************************************************************

Host: Ethans-MBP-5.fios-router.home

Timers On : Sun Nov  3 13:25:35 2019
Timers Off: Sun Nov  3 13:25:35 2019

Wall Time:        0.30 seconds

                                                       Time (seconds)
Module                                       User      System        Wall        Calls

--------------------------------------------------------------------------------------

**************************************************************************************

Host: Ethans-MBP-5.fios-router.home

Timers On : Sun Nov  3 13:26:34 2019
Timers Off: Sun Nov  3 13:26:34 2019

Wall Time:        0.30 seconds

                                                       Time (seconds)
Module                                       User      System        Wall        Calls

--------------------------------------------------------------------------------------

**************************************************************************************

Host: Ethans-MBP-5.fios-router.home

Timers On : Sun Nov  3 13:28:57 2019
Timers Off: Sun Nov  3 13:28:57 2019

Wall Time:        0.31 seconds

                                                       Time (seconds)
Module                                       User      System        Wall        Calls

--------------------------------------------------------------------------------------

**************************************************************************************

Host: Ethans-MBP-5.fios-router.home

Timers On : Sun Nov  3 13:29:07 2019
Timers Off: Sun Nov  3 13:29:08 2019

Wall Time:        0.30 seconds

                                                       Time (seconds)
Module                                       User      System        Wall        Calls

--------------------------------------------------------------------------------------

**************************************************************************************

Host: Ethans-MBP-5.fios-router.home

Timers On : Sun Nov  3 13:29:38 2019
Timers Off: Sun Nov  3 13:29:39 2019

Wall Time:        0.30 seconds

                                                       Time (seconds)
Module                                       User      System        Wall        Calls

--------------------------------------------------------------------------------------

**************************************************************************************

Host: Ethans-MBP-5.fios-router.home

Timers On : Sun Nov  3 14:46:46 2019
Timers Off: Sun Nov  3 14:46:46 2019

Wall Time:        0.27 seconds

                                                       Time (seconds)
Module                                       User      System        Wall        Calls

--------------------------------------------------------------------------------------

**************************************************************************************

Host: Ethans-MBP-5.fios-router.home

Timers On : Sun Nov  3 14:47:00 2019
Timers Off: Sun Nov  3 14:47:00 2019

Wall Time:        0.31 seconds

                                                       Time (seconds)
Module                                       User      System        Wall        Calls

--------------------------------------------------------------------------------------

**************************************************************************************

Host: Ethans-MBP-5.fios-router.home

Timers On : Sun Nov  3 14:47:12 2019
Timers Off: Sun Nov  3 14:47:12 2019

Wall Time:        0.28 seconds

                                                       Time (seconds)
Module                                       User      System        Wall        Calls

--------------------------------------------------------------------------------------

**************************************************************************************

Host: Ethans-MBP-5.fios-router.home

Timers On : Sun Nov  3 14:47:19 2019
Timers Off: Sun Nov  3 14:47:20 2019

Wall Time:        0.30 seconds

                                                       Time (seconds)
Module                                       User      System        Wall        Calls

--------------------------------------------------------------------------------------

**************************************************************************************

Host: Ethans-MBP-5.fios-router.home

Timers On : Sun Nov  3 14:57:02 2019
Timers Off: Sun Nov  3 14:57:02 2019

Wall Time:        0.31 seconds

                                                       Time (seconds)
Module                                       User      System        Wall        Calls

--------------------------------------------------------------------------------------

**************************************************************************************

Host: Ethans-MBP-5.fios-router.home

Timers On : Sun Nov  3 15:03:27 2019
Timers Off: Sun Nov  3 15:03:27 2019

Wall Time:        0.30 seconds

                                                       Time (seconds)
Module                                       User      System        Wall        Calls

--------------------------------------------------------------------------------------

**************************************************************************************

Host: Ethans-MBP-5.fios-router.home

Timers On : Sun Nov  3 15:05:24 2019
Timers Off: Sun Nov  3 15:05:24 2019

Wall Time:        0.31 seconds

                                                       Time (seconds)
Module                                       User      System        Wall        Calls

--------------------------------------------------------------------------------------

**************************************************************************************

Host: Ethans-MBP-5.fios-router.home

Timers On : Sun Nov  3 15:06:24 2019
Timers Off: Sun Nov  3 15:06:24 2019

Wall Time:        0.31 seconds

                                                       Time (seconds)
Module                                       User      System        Wall        Calls

--------------------------------------------------------------------------------------

**************************************************************************************

Host: Ethans-MBP-5.fios-router.home

Timers On : Sun Nov  3 15:07:16 2019
Timers Off: Sun Nov  3 15:07:17 2019

Wall Time:        0.31 seconds

                                                       Time (seconds)
Module                                       User      System        Wall        Calls

--------------------------------------------------------------------------------------

**************************************************************************************

Host: Ethans-MBP-5.fios-router.home

Timers On : Sun Nov  3 15:15:10 2019
Timers Off: Sun Nov  3 15:15:10 2019

Wall Time:        0.32 seconds

                                                       Time (seconds)
Module                                       User      System        Wall        Calls

--------------------------------------------------------------------------------------

**************************************************************************************

Host: Ethans-MBP-5.fios-router.home

Timers On : Sun Nov  3 15:15:19 2019
Timers Off: Sun Nov  3 15:15:19 2019

Wall Time:        0.31 seconds

                                                       Time (seconds)
Module                                       User      System        Wall        Calls

--------------------------------------------------------------------------------------

**************************************************************************************

Host: Ethans-MBP-5.fios-router.home

Timers On : Sun Nov  3 15:15:29 2019
Timers Off: Sun Nov  3 15:15:29 2019

Wall Time:        0.31 seconds

                                                       Time (seconds)
Module                                       User      System        Wall        Calls

--------------------------------------------------------------------------------------

**************************************************************************************

Host: Ethans-MBP-5.fios-router.home

Timers On : Sun Nov  3 15:16:59 2019
Timers Off: Sun Nov  3 15:17:00 2019

Wall Time:        0.31 seconds

                                                       Time (seconds)
Module                                       User      System        Wall        Calls

--------------------------------------------------------------------------------------

**************************************************************************************

Host: Ethans-MBP-5.fios-router.home

Timers On : Sun Nov  3 15:17:40 2019
Timers Off: Sun Nov  3 15:17:41 2019

Wall Time:        0.33 seconds

                                                       Time (seconds)
Module                                       User      System        Wall        Calls

--------------------------------------------------------------------------------------

**************************************************************************************

Host: Ethans-MBP-5.fios-router.home

Timers On : Sun Nov  3 15:17:54 2019
Timers Off: Sun Nov  3 15:17:54 2019

Wall Time:        0.31 seconds

                                                       Time (seconds)
Module                                       User      System        Wall        Calls

--------------------------------------------------------------------------------------

**************************************************************************************

Host: Ethans-MBP-5.fios-router.home

Timers On : Sun Nov  3 15:20:09 2019
Timers Off: Sun Nov  3 15:20:10 2019

Wall Time:        0.31 seconds

                                                       Time (seconds)
Module                                       User      System        Wall        Calls

--------------------------------------------------------------------------------------

**************************************************************************************

Host: Ethans-MBP-5.fios-router.home

Timers On : Sun Nov  3 15:22:28 2019
Timers Off: Sun Nov  3 15:22:28 2019

Wall Time:        0.30 seconds

                                                       Time (seconds)
Module                                       User      System        Wall        Calls

--------------------------------------------------------------------------------------

**************************************************************************************

Host: Ethans-MBP-5.fios-router.home

Timers On : Sun Nov  3 15:22:39 2019
Timers Off: Sun Nov  3 15:22:40 2019

Wall Time:        0.30 seconds

                                                       Time (seconds)
Module                                       User      System        Wall        Calls

--------------------------------------------------------------------------------------

**************************************************************************************

Host: Ethans-MBP-5.fios-router.home

Timers On : Sun Nov  3 15:22:55 2019
Timers Off: Sun Nov  3 15:22:55 2019

Wall Time:        0.30 seconds

                                                       Time (seconds)
Module                                       User      System        Wall        Calls

--------------------------------------------------------------------------------------

**************************************************************************************

Host: Ethans-MBP-5.fios-router.home

Timers On : Sun Nov  3 15:23:29 2019
Timers Off: Sun Nov  3 15:23:30 2019

Wall Time:        0.31 seconds

                                                       Time (seconds)
Module                                       User      System        Wall        Calls

--------------------------------------------------------------------------------------

**************************************************************************************

Host: Ethans-MBP-5.fios-router.home

Timers On : Sun Nov  3 15:23:39 2019
Timers Off: Sun Nov  3 15:23:40 2019

Wall Time:        0.30 seconds

                                                       Time (seconds)
Module                                       User      System        Wall        Calls

--------------------------------------------------------------------------------------

**************************************************************************************

Host: Ethans-MBP-5.fios-router.home

Timers On : Sun Nov  3 15:32:41 2019
Timers Off: Sun Nov  3 15:32:42 2019

Wall Time:        0.31 seconds

                                                       Time (seconds)
Module                                       User      System        Wall        Calls

--------------------------------------------------------------------------------------

**************************************************************************************

Host: Ethans-MBP-5.fios-router.home

Timers On : Sun Nov  3 15:33:09 2019
Timers Off: Sun Nov  3 15:33:09 2019

Wall Time:        0.30 seconds

                                                       Time (seconds)
Module                                       User      System        Wall        Calls

--------------------------------------------------------------------------------------

**************************************************************************************

Host: Ethans-MBP-5.fios-router.home

Timers On : Sun Nov  3 15:33:17 2019
Timers Off: Sun Nov  3 15:33:17 2019

Wall Time:        0.30 seconds

                                                       Time (seconds)
Module                                       User      System        Wall        Calls

--------------------------------------------------------------------------------------

**************************************************************************************

Host: Ethans-MBP-5.fios-router.home

Timers On : Sun Nov  3 15:33:21 2019
Timers Off: Sun Nov  3 15:33:21 2019

Wall Time:        0.30 seconds

                                                       Time (seconds)
Module                                       User      System        Wall        Calls

--------------------------------------------------------------------------------------

**************************************************************************************

Host: Ethans-MBP-5.fios-router.home

Timers On : Sun Nov  3 15:33:33 2019
Timers Off: Sun Nov  3 15:33:33 2019

Wall Time:        0.31 seconds

                                                       Time (seconds)
Module                                       User      System        Wall        Calls

--------------------------------------------------------------------------------------

**************************************************************************************

Host: Ethans-MBP-5.fios-router.home

Timers On : Sun Nov  3 15:35:18 2019
Timers Off: Sun Nov  3 15:35:18 2019

Wall Time:        0.31 seconds

                                                       Time (seconds)
Module                                       User      System        Wall        Calls

--------------------------------------------------------------------------------------

**************************************************************************************

Host: Ethans-MBP-5.fios-router.home

Timers On : Sun Nov  3 15:36:16 2019
Timers Off: Sun Nov  3 15:36:17 2019

Wall Time:        0.31 seconds

                                                       Time (seconds)
Module                                       User      System        Wall        Calls

--------------------------------------------------------------------------------------

**************************************************************************************

Host: Ethans-MBP-5.fios-router.home

Timers On : Sun Nov  3 15:41:24 2019
Timers Off: Sun Nov  3 15:41:24 2019

Wall Time:        0.29 seconds

                                                       Time (seconds)
Module                                       User      System        Wall        Calls

--------------------------------------------------------------------------------------

**************************************************************************************

Host: Ethans-MBP-5.fios-router.home

Timers On : Sun Nov  3 15:41:59 2019
Timers Off: Sun Nov  3 15:41:59 2019

Wall Time:        0.28 seconds

                                                       Time (seconds)
Module                                       User      System        Wall        Calls

--------------------------------------------------------------------------------------

**************************************************************************************

Host: Ethans-MBP-5.fios-router.home

Timers On : Sun Nov  3 15:42:04 2019
Timers Off: Sun Nov  3 15:42:05 2019

Wall Time:        0.31 seconds

                                                       Time (seconds)
Module                                       User      System        Wall        Calls

--------------------------------------------------------------------------------------

**************************************************************************************

Host: Ethans-MBP-5.fios-router.home

Timers On : Sun Nov  3 15:44:01 2019
Timers Off: Sun Nov  3 15:44:02 2019

Wall Time:        0.31 seconds

                                                       Time (seconds)
Module                                       User      System        Wall        Calls

--------------------------------------------------------------------------------------

**************************************************************************************

Host: Ethans-MBP-5.fios-router.home

Timers On : Sun Nov  3 15:44:36 2019
Timers Off: Sun Nov  3 15:44:36 2019

Wall Time:        0.31 seconds

                                                       Time (seconds)
Module                                       User      System        Wall        Calls

--------------------------------------------------------------------------------------

**************************************************************************************

Host: Ethans-MBP-5.fios-router.home

Timers On : Sun Nov  3 15:45:10 2019
Timers Off: Sun Nov  3 15:45:11 2019

Wall Time:        0.30 seconds

                                                       Time (seconds)
Module                                       User      System        Wall        Calls

--------------------------------------------------------------------------------------

**************************************************************************************

Host: Ethans-MBP-5.fios-router.home

Timers On : Sun Nov  3 15:45:53 2019
Timers Off: Sun Nov  3 15:45:54 2019

Wall Time:        0.31 seconds

                                                       Time (seconds)
Module                                       User      System        Wall        Calls

--------------------------------------------------------------------------------------

**************************************************************************************

Host: Ethans-MBP-5.fios-router.home

Timers On : Sun Nov  3 15:46:07 2019
Timers Off: Sun Nov  3 15:46:07 2019

Wall Time:        0.31 seconds

                                                       Time (seconds)
Module                                       User      System        Wall        Calls

--------------------------------------------------------------------------------------

**************************************************************************************

Host: Ethans-MBP-5.fios-router.home

Timers On : Sun Nov  3 15:46:20 2019
Timers Off: Sun Nov  3 15:46:20 2019

Wall Time:        0.31 seconds

                                                       Time (seconds)
Module                                       User      System        Wall        Calls

--------------------------------------------------------------------------------------

**************************************************************************************

Host: Ethans-MBP-5.fios-router.home

Timers On : Sun Nov  3 15:46:41 2019
Timers Off: Sun Nov  3 15:46:41 2019

Wall Time:        0.31 seconds

                                                       Time (seconds)
Module                                       User      System        Wall        Calls

--------------------------------------------------------------------------------------

**************************************************************************************

Host: Ethans-MBP-5.fios-router.home

Timers On : Sun Nov  3 15:48:47 2019
Timers Off: Sun Nov  3 15:48:48 2019

Wall Time:        0.31 seconds

                                                       Time (seconds)
Module                                       User      System        Wall        Calls

--------------------------------------------------------------------------------------

**************************************************************************************

Host: Ethans-MBP-5.fios-router.home

Timers On : Sun Nov  3 15:55:05 2019
Timers Off: Sun Nov  3 15:55:05 2019

Wall Time:        0.31 seconds

                                                       Time (seconds)
Module                                       User      System        Wall        Calls

--------------------------------------------------------------------------------------

**************************************************************************************

Host: Ethans-MBP-5.fios-router.home

Timers On : Sun Nov  3 15:55:54 2019
Timers Off: Sun Nov  3 15:55:54 2019

Wall Time:        0.31 seconds

                                                       Time (seconds)
Module                                       User      System        Wall        Calls

--------------------------------------------------------------------------------------

**************************************************************************************

Host: Ethans-MBP-5.fios-router.home

Timers On : Sun Nov  3 15:57:45 2019
Timers Off: Sun Nov  3 15:57:45 2019

Wall Time:        0.32 seconds

                                                       Time (seconds)
Module                                       User      System        Wall        Calls

--------------------------------------------------------------------------------------

**************************************************************************************

Host: Ethans-MBP-5.fios-router.home

Timers On : Sun Nov  3 15:58:15 2019
Timers Off: Sun Nov  3 15:58:15 2019

Wall Time:        0.31 seconds

                                                       Time (seconds)
Module                                       User      System        Wall        Calls

--------------------------------------------------------------------------------------

**************************************************************************************

Host: Ethans-MBP-5.fios-router.home

Timers On : Sun Nov  3 15:59:13 2019
Timers Off: Sun Nov  3 15:59:13 2019

Wall Time:        0.31 seconds

                                                       Time (seconds)
Module                                       User      System        Wall        Calls

--------------------------------------------------------------------------------------

**************************************************************************************

Host: Ethans-MBP-5.fios-router.home

Timers On : Sun Nov  3 15:59:32 2019
Timers Off: Sun Nov  3 15:59:33 2019

Wall Time:        0.31 seconds

                                                       Time (seconds)
Module                                       User      System        Wall        Calls

--------------------------------------------------------------------------------------

**************************************************************************************

Host: Ethans-MBP-5.fios-router.home

Timers On : Sun Nov  3 15:59:44 2019
Timers Off: Sun Nov  3 15:59:45 2019

Wall Time:        0.31 seconds

                                                       Time (seconds)
Module                                       User      System        Wall        Calls

--------------------------------------------------------------------------------------

**************************************************************************************

Host: Ethans-MBP-5.fios-router.home

Timers On : Sun Nov  3 16:01:03 2019
Timers Off: Sun Nov  3 16:01:03 2019

Wall Time:        0.31 seconds

                                                       Time (seconds)
Module                                       User      System        Wall        Calls

--------------------------------------------------------------------------------------

**************************************************************************************

Host: Ethans-MBP-5.fios-router.home

Timers On : Sun Nov  3 19:11:49 2019
Timers Off: Sun Nov  3 19:11:49 2019

Wall Time:        0.31 seconds

                                                       Time (seconds)
Module                                       User      System        Wall        Calls

--------------------------------------------------------------------------------------

**************************************************************************************

Host: Ethans-MBP-5.fios-router.home

Timers On : Sun Nov  3 20:29:58 2019
Timers Off: Sun Nov  3 20:29:58 2019

Wall Time:        0.41 seconds

                                                       Time (seconds)
Module                                       User      System        Wall        Calls

--------------------------------------------------------------------------------------

**************************************************************************************

Host: Ethans-MBP-5.fios-router.home

Timers On : Sun Nov  3 20:30:08 2019
Timers Off: Sun Nov  3 20:30:09 2019

Wall Time:        0.32 seconds

                                                       Time (seconds)
Module                                       User      System        Wall        Calls

--------------------------------------------------------------------------------------

**************************************************************************************

Host: Ethans-MBP-5.fios-router.home

Timers On : Sun Nov  3 20:30:13 2019
Timers Off: Sun Nov  3 20:30:14 2019

Wall Time:        0.31 seconds

                                                       Time (seconds)
Module                                       User      System        Wall        Calls

--------------------------------------------------------------------------------------

**************************************************************************************

Host: wireless-10-104-59-236.umd.edu

Timers On : Mon Nov  4 11:06:26 2019
Timers Off: Mon Nov  4 11:06:26 2019

Wall Time:        0.45 seconds

                                                       Time (seconds)
Module                                       User      System        Wall        Calls

--------------------------------------------------------------------------------------

**************************************************************************************

Host: wireless-10-104-59-236.umd.edu

Timers On : Mon Nov  4 11:40:31 2019
Timers Off: Mon Nov  4 11:40:31 2019

Wall Time:        0.32 seconds

                                                       Time (seconds)
Module                                       User      System        Wall        Calls

--------------------------------------------------------------------------------------

**************************************************************************************

Host: wireless-10-104-59-236.umd.edu

Timers On : Mon Nov  4 11:40:48 2019
Timers Off: Mon Nov  4 11:40:48 2019

Wall Time:        0.32 seconds

                                                       Time (seconds)
Module                                       User      System        Wall        Calls

--------------------------------------------------------------------------------------

**************************************************************************************

Host: wireless-10-104-59-236.umd.edu

Timers On : Mon Nov  4 11:41:54 2019
Timers Off: Mon Nov  4 11:41:55 2019

Wall Time:        0.32 seconds

                                                       Time (seconds)
Module                                       User      System        Wall        Calls

--------------------------------------------------------------------------------------

**************************************************************************************

Host: wireless-10-104-59-236.umd.edu

Timers On : Mon Nov  4 11:42:12 2019
Timers Off: Mon Nov  4 11:42:12 2019

Wall Time:        0.32 seconds

                                                       Time (seconds)
Module                                       User      System        Wall        Calls

--------------------------------------------------------------------------------------

**************************************************************************************

Host: wireless-10-104-59-236.umd.edu

Timers On : Mon Nov  4 11:42:55 2019
Timers Off: Mon Nov  4 11:42:55 2019

Wall Time:        0.31 seconds

                                                       Time (seconds)
Module                                       User      System        Wall        Calls

--------------------------------------------------------------------------------------

**************************************************************************************

Host: wireless-10-104-59-236.umd.edu

Timers On : Mon Nov  4 11:44:08 2019
Timers Off: Mon Nov  4 11:44:08 2019

Wall Time:        0.32 seconds

                                                       Time (seconds)
Module                                       User      System        Wall        Calls

--------------------------------------------------------------------------------------

**************************************************************************************

Host: wireless-10-104-59-236.umd.edu

Timers On : Mon Nov  4 11:45:26 2019
Timers Off: Mon Nov  4 11:45:27 2019

Wall Time:        0.32 seconds

                                                       Time (seconds)
Module                                       User      System        Wall        Calls

--------------------------------------------------------------------------------------

**************************************************************************************

Host: wireless-10-104-59-236.umd.edu

Timers On : Mon Nov  4 11:45:36 2019
Timers Off: Mon Nov  4 11:45:36 2019

Wall Time:        0.33 seconds

                                                       Time (seconds)
Module                                       User      System        Wall        Calls

--------------------------------------------------------------------------------------

**************************************************************************************

Host: wireless-10-104-59-236.umd.edu

Timers On : Mon Nov  4 11:46:08 2019
Timers Off: Mon Nov  4 11:46:08 2019

Wall Time:        0.32 seconds

                                                       Time (seconds)
Module                                       User      System        Wall        Calls

--------------------------------------------------------------------------------------

**************************************************************************************

Host: wireless-10-104-59-236.umd.edu

Timers On : Mon Nov  4 11:46:21 2019
Timers Off: Mon Nov  4 11:46:21 2019

Wall Time:        0.32 seconds

                                                       Time (seconds)
Module                                       User      System        Wall        Calls

--------------------------------------------------------------------------------------

**************************************************************************************

Host: wireless-10-104-59-236.umd.edu

Timers On : Mon Nov  4 11:46:34 2019
Timers Off: Mon Nov  4 11:46:34 2019

Wall Time:        0.32 seconds

                                                       Time (seconds)
Module                                       User      System        Wall        Calls

--------------------------------------------------------------------------------------

**************************************************************************************

Host: wireless-10-104-59-236.umd.edu

Timers On : Mon Nov  4 11:46:55 2019
Timers Off: Mon Nov  4 11:46:55 2019

Wall Time:        0.32 seconds

                                                       Time (seconds)
Module                                       User      System        Wall        Calls

--------------------------------------------------------------------------------------

**************************************************************************************

Host: wireless-10-104-59-236.umd.edu

Timers On : Mon Nov  4 11:47:01 2019
Timers Off: Mon Nov  4 11:47:01 2019

Wall Time:        0.32 seconds

                                                       Time (seconds)
Module                                       User      System        Wall        Calls

--------------------------------------------------------------------------------------

**************************************************************************************

Host: wireless-10-104-59-236.umd.edu

Timers On : Mon Nov  4 11:47:09 2019
Timers Off: Mon Nov  4 11:47:10 2019

Wall Time:        0.32 seconds

                                                       Time (seconds)
Module                                       User      System        Wall        Calls

--------------------------------------------------------------------------------------

**************************************************************************************

Host: wireless-10-104-59-236.umd.edu

Timers On : Mon Nov  4 11:47:40 2019
Timers Off: Mon Nov  4 11:47:41 2019

Wall Time:        0.31 seconds

                                                       Time (seconds)
Module                                       User      System        Wall        Calls

--------------------------------------------------------------------------------------

**************************************************************************************

Host: wireless-10-104-59-236.umd.edu

Timers On : Mon Nov  4 11:47:53 2019
Timers Off: Mon Nov  4 11:47:53 2019

Wall Time:        0.32 seconds

                                                       Time (seconds)
Module                                       User      System        Wall        Calls

--------------------------------------------------------------------------------------

**************************************************************************************

Host: wireless-10-104-59-236.umd.edu

Timers On : Mon Nov  4 11:48:07 2019
Timers Off: Mon Nov  4 11:48:08 2019

Wall Time:        0.32 seconds

                                                       Time (seconds)
Module                                       User      System        Wall        Calls

--------------------------------------------------------------------------------------

**************************************************************************************

Host: wireless-10-104-59-236.umd.edu

Timers On : Mon Nov  4 11:48:19 2019
Timers Off: Mon Nov  4 11:48:19 2019

Wall Time:        0.32 seconds

                                                       Time (seconds)
Module                                       User      System        Wall        Calls

--------------------------------------------------------------------------------------

**************************************************************************************

Host: wireless-10-104-59-236.umd.edu

Timers On : Mon Nov  4 11:48:31 2019
Timers Off: Mon Nov  4 11:48:31 2019

Wall Time:        0.32 seconds

                                                       Time (seconds)
Module                                       User      System        Wall        Calls

--------------------------------------------------------------------------------------

**************************************************************************************

Host: wireless-10-104-59-236.umd.edu

Timers On : Mon Nov  4 12:14:34 2019
Timers Off: Mon Nov  4 12:14:34 2019

Wall Time:        0.31 seconds

                                                       Time (seconds)
Module                                       User      System        Wall        Calls

--------------------------------------------------------------------------------------

**************************************************************************************

Host: wireless-10-104-59-236.umd.edu

Timers On : Mon Nov  4 12:16:23 2019
Timers Off: Mon Nov  4 12:16:23 2019

Wall Time:        0.32 seconds

                                                       Time (seconds)
Module                                       User      System        Wall        Calls

--------------------------------------------------------------------------------------

**************************************************************************************

Host: wireless-10-104-59-236.umd.edu

Timers On : Mon Nov  4 12:19:31 2019
Timers Off: Mon Nov  4 12:19:31 2019

Wall Time:        0.31 seconds

                                                       Time (seconds)
Module                                       User      System        Wall        Calls

--------------------------------------------------------------------------------------

**************************************************************************************

Host: wireless-10-104-59-236.umd.edu

Timers On : Mon Nov  4 12:21:35 2019
Timers Off: Mon Nov  4 12:21:35 2019

Wall Time:        0.31 seconds

                                                       Time (seconds)
Module                                       User      System        Wall        Calls

--------------------------------------------------------------------------------------

**************************************************************************************

Host: wireless-10-104-48-97.umd.edu

Timers On : Tue Nov  5 14:24:14 2019
Timers Off: Tue Nov  5 14:24:15 2019

Wall Time:        0.94 seconds

                                                       Time (seconds)
Module                                       User      System        Wall        Calls

--------------------------------------------------------------------------------------

**************************************************************************************
